/*--------------------------------*- C++ -*----------------------------------*\
  =========                 |
  \\      /  F ield         | OpenFOAM: The Open Source CFD Toolbox
   \\    /   O peration     | Website:  https://openfoam.org
    \\  /    A nd           | Version:  10
     \\/     M anipulation  |
\*---------------------------------------------------------------------------*/
FoamFile
{
    format      ascii;
    class       volVectorField;
    location    "10";
    object      U;
}
// * * * * * * * * * * * * * * * * * * * * * * * * * * * * * * * * * * * * * //

dimensions      [0 1 -1 0 0 0 0];

internalField   nonuniform List<vector> 
66268
(
(1 -3.95205e-05 0)
(1 -0.000146166 0)
(1 -0.000234697 0)
(1 -0.000327715 0)
(1 -0.000419744 0)
(1 -0.000511561 0)
(1 -0.000603876 0)
(1 -0.000696911 0)
(1 -0.000790656 0)
(1 -0.000885056 0)
(1 -0.000979934 0)
(1 -0.00107503 0)
(1 -0.00116999 0)
(1 -0.00126439 0)
(1 -0.00135778 0)
(1 -0.00144963 0)
(1 -0.00153946 0)
(1 -0.00162672 0)
(1 -0.00171091 0)
(1 -0.00179152 0)
(1 -0.00186811 0)
(1 -0.00194026 0)
(1 -0.0020076 0)
(1 -0.00206984 0)
(1 -0.00212675 0)
(1 -0.00217817 0)
(1 -0.00222399 0)
(1 -0.00226417 0)
(1 -0.00229872 0)
(1 -0.00232774 0)
(1 -0.00235135 0)
(1 -0.00236974 0)
(1 -0.0023831 0)
(1 -0.00239168 0)
(1 -0.00239574 0)
(1 -0.00239556 0)
(1 -0.00239144 0)
(1 -0.00238367 0)
(1 -0.00237256 0)
(1 -0.00235841 0)
(1 -0.00234148 0)
(1 -0.00232205 0)
(1 -0.00230037 0)
(1 -0.00227669 0)
(1 -0.00225123 0)
(1 -0.00222425 0)
(1 -0.00219598 0)
(1 -0.0021667 0)
(0.999997 -0.00213667 0)
(0.999994 -0.00210621 0)
(0.999989 -0.00207561 0)
(0.999984 -0.00204518 0)
(0.999977 -0.00201514 0)
(0.99997 -0.00198566 0)
(0.999965 -0.0019568 0)
(0.999961 -0.00192858 0)
(0.999959 -0.00190096 0)
(0.999958 -0.00187391 0)
(0.999959 -0.00184742 0)
(0.999961 -0.0018215 0)
(0.999964 -0.00179616 0)
(0.999967 -0.00177147 0)
(0.99997 -0.00174744 0)
(0.999972 -0.00172414 0)
(0.999975 -0.0017016 0)
(0.999977 -0.00167985 0)
(0.999979 -0.0016589 0)
(0.999981 -0.00163879 0)
(0.999982 -0.00161956 0)
(1.00017 -0.000118016 0)
(1.00017 -0.00043061 0)
(1.00017 -0.000689571 0)
(1.00018 -0.000963685 0)
(1.00019 -0.00123351 0)
(1.00019 -0.00150179 0)
(1.0002 -0.00177113 0)
(1.00021 -0.00204181 0)
(1.00022 -0.00231394 0)
(1.00023 -0.00258735 0)
(1.00024 -0.00286146 0)
(1.00025 -0.00313562 0)
(1.00026 -0.00340884 0)
(1.00027 -0.00367988 0)
(1.00028 -0.00394742 0)
(1.00028 -0.00421014 0)
(1.00029 -0.00446653 0)
(1.00029 -0.00471515 0)
(1.00029 -0.00495452 0)
(1.00029 -0.00518328 0)
(1.00028 -0.00540016 0)
(1.00027 -0.00560397 0)
(1.00027 -0.00579373 0)
(1.00025 -0.00596864 0)
(1.00024 -0.00612799 0)
(1.00023 -0.00627134 0)
(1.00021 -0.00639843 0)
(1.00019 -0.00650918 0)
(1.00017 -0.00660366 0)
(1.00014 -0.00668211 0)
(1.00012 -0.00674493 0)
(1.0001 -0.00679264 0)
(1.00007 -0.00682589 0)
(1.00004 -0.00684536 0)
(1.00001 -0.00685186 0)
(0.999987 -0.00684621 0)
(0.999959 -0.0068293 0)
(0.99993 -0.00680202 0)
(0.999902 -0.00676529 0)
(0.999873 -0.00672004 0)
(0.999845 -0.00666721 0)
(0.999817 -0.00660772 0)
(0.999789 -0.00654251 0)
(0.999762 -0.00647246 0)
(0.999735 -0.0063984 0)
(0.999709 -0.0063211 0)
(0.999684 -0.00624124 0)
(0.99966 -0.0061594 0)
(0.999639 -0.00607604 0)
(0.999621 -0.0059915 0)
(0.999607 -0.00590603 0)
(0.999595 -0.00581985 0)
(0.999586 -0.00573317 0)
(0.999577 -0.0056463 0)
(0.999568 -0.0055596 0)
(0.999557 -0.00547351 0)
(0.999543 -0.00538847 0)
(0.999528 -0.00530485 0)
(0.999511 -0.00522296 0)
(0.999493 -0.00514302 0)
(0.999475 -0.00506517 0)
(0.999457 -0.00498949 0)
(0.99944 -0.00491605 0)
(0.999425 -0.00484486 0)
(0.99941 -0.00477595 0)
(0.999397 -0.00470933 0)
(0.999385 -0.00464499 0)
(0.999374 -0.00458296 0)
(0.999363 -0.00452332 0)
(1.00051 -0.000195224 0)
(1.00051 -0.000701543 0)
(1.00052 -0.00111994 0)
(1.00054 -0.00156687 0)
(1.00056 -0.00200398 0)
(1.00058 -0.00243776 0)
(1.0006 -0.00287262 0)
(1.00063 -0.00330876 0)
(1.00066 -0.00374636 0)
(1.00068 -0.00418523 0)
(1.00071 -0.00462456 0)
(1.00074 -0.00506313 0)
(1.00076 -0.0054995 0)
(1.00078 -0.00593191 0)
(1.0008 -0.00635837 0)
(1.00081 -0.00677671 0)
(1.00082 -0.00718462 0)
(1.00083 -0.00757984 0)
(1.00082 -0.00796005 0)
(1.00081 -0.00832318 0)
(1.0008 -0.00866712 0)
(1.00078 -0.00899011 0)
(1.00075 -0.00929058 0)
(1.00071 -0.00956717 0)
(1.00067 -0.0098188 0)
(1.00063 -0.0100447 0)
(1.00057 -0.0102446 0)
(1.00051 -0.0104181 0)
(1.00045 -0.0105655 0)
(1.00038 -0.010687 0)
(1.00031 -0.0107835 0)
(1.00024 -0.0108556 0)
(1.00016 -0.0109044 0)
(1.00009 -0.010931 0)
(1.00001 -0.0109367 0)
(0.999927 -0.0109229 0)
(0.999847 -0.0108909 0)
(0.999767 -0.0108423 0)
(0.999687 -0.0107786 0)
(0.999609 -0.0107011 0)
(0.999533 -0.0106114 0)
(0.999458 -0.0105107 0)
(0.999384 -0.0104005 0)
(0.999314 -0.0102819 0)
(0.999245 -0.0101559 0)
(0.999179 -0.0100238 0)
(0.999115 -0.00988651 0)
(0.999052 -0.00974505 0)
(0.998991 -0.00960043 0)
(0.99893 -0.00945368 0)
(0.998869 -0.0093058 0)
(0.998809 -0.00915774 0)
(0.998749 -0.00901032 0)
(0.998692 -0.0088642 0)
(0.99864 -0.00871982 0)
(0.998593 -0.0085775 0)
(0.998552 -0.00843742 0)
(0.998517 -0.00829979 0)
(0.998486 -0.0081648 0)
(0.99846 -0.00803266 0)
(0.998436 -0.00790361 0)
(0.998413 -0.00777788 0)
(0.998393 -0.00765567 0)
(0.998373 -0.00753717 0)
(0.998354 -0.00742252 0)
(0.998335 -0.0073118 0)
(0.998317 -0.00720509 0)
(0.9983 -0.00710245 0)
(0.998284 -0.00700393 0)
(1.00097 -0.000269214 0)
(1.00097 -0.000955787 0)
(1.001 -0.00152318 0)
(1.00102 -0.00213267 0)
(1.00106 -0.0027251 0)
(1.0011 -0.00331302 0)
(1.00114 -0.00390157 0)
(1.00119 -0.00449095 0)
(1.00124 -0.00508128 0)
(1.00129 -0.0056725 0)
(1.00133 -0.00626367 0)
(1.00138 -0.00685328 0)
(1.00142 -0.00743954 0)
(1.00146 -0.00802017 0)
(1.00149 -0.0085927 0)
(1.00151 -0.00915416 0)
(1.00153 -0.0097017 0)
(1.00153 -0.0102323 0)
(1.00152 -0.0107429 0)
(1.00151 -0.0112308 0)
(1.00148 -0.0116931 0)
(1.00143 -0.0121274 0)
(1.00138 -0.0125316 0)
(1.00131 -0.0129037 0)
(1.00123 -0.0132423 0)
(1.00114 -0.0135465 0)
(1.00104 -0.0138153 0)
(1.00093 -0.0140486 0)
(1.00081 -0.0142465 0)
(1.00069 -0.0144092 0)
(1.00055 -0.0145377 0)
(1.00042 -0.0146328 0)
(1.00027 -0.014696 0)
(1.00013 -0.0147286 0)
(0.99998 -0.0147323 0)
(0.999831 -0.0147088 0)
(0.999682 -0.0146602 0)
(0.999533 -0.0145883 0)
(0.999386 -0.0144951 0)
(0.999241 -0.0143825 0)
(0.999099 -0.0142526 0)
(0.99896 -0.0141074 0)
(0.998824 -0.0139486 0)
(0.998692 -0.0137783 0)
(0.998563 -0.0135983 0)
(0.99844 -0.0134102 0)
(0.998321 -0.0132158 0)
(0.998208 -0.0130165 0)
(0.998101 -0.0128137 0)
(0.998003 -0.0126083 0)
(0.997912 -0.0124014 0)
(0.99783 -0.0121937 0)
(0.997754 -0.0119859 0)
(0.997682 -0.0117787 0)
(0.997611 -0.0115731 0)
(0.997541 -0.0113699 0)
(0.99747 -0.0111698 0)
(0.997397 -0.0109736 0)
(0.997326 -0.0107818 0)
(0.997255 -0.0105948 0)
(0.997187 -0.0104129 0)
(0.997123 -0.0102363 0)
(0.997062 -0.0100651 0)
(0.997005 -0.00989928 0)
(0.996953 -0.00973902 0)
(0.996904 -0.0095843 0)
(0.996858 -0.00943514 0)
(0.996816 -0.00929156 0)
(0.996777 -0.00915362 0)
(1.00152 -0.000337674 0)
(1.00153 -0.00118914 0)
(1.00156 -0.00189466 0)
(1.0016 -0.00265408 0)
(1.00165 -0.00338848 0)
(1.00171 -0.00411792 0)
(1.00178 -0.00484733 0)
(1.00185 -0.00557681 0)
(1.00192 -0.00630694 0)
(1.002 -0.00703744 0)
(1.00207 -0.00776753 0)
(1.00214 -0.00849572 0)
(1.0022 -0.00921984 0)
(1.00226 -0.00993721 0)
(1.00231 -0.0106448 0)
(1.00234 -0.0113393 0)
(1.00236 -0.0120173 0)
(1.00237 -0.0126751 0)
(1.00236 -0.0133091 0)
(1.00233 -0.0139157 0)
(1.00228 -0.0144917 0)
(1.00222 -0.0150339 0)
(1.00213 -0.0155393 0)
(1.00203 -0.0160056 0)
(1.00191 -0.0164311 0)
(1.00177 -0.016814 0)
(1.00161 -0.0171534 0)
(1.00144 -0.0174487 0)
(1.00126 -0.0176996 0)
(1.00106 -0.0179067 0)
(1.00085 -0.0180706 0)
(1.00064 -0.0181925 0)
(1.00041 -0.018274 0)
(1.00018 -0.0183167 0)
(0.999952 -0.0183227 0)
(0.999718 -0.0182942 0)
(0.999483 -0.0182337 0)
(0.999248 -0.0181436 0)
(0.999015 -0.0180263 0)
(0.998785 -0.0178846 0)
(0.998558 -0.0177209 0)
(0.998337 -0.0175377 0)
(0.99812 -0.0173374 0)
(0.99791 -0.0171222 0)
(0.997705 -0.0168942 0)
(0.997508 -0.0166555 0)
(0.997317 -0.0164079 0)
(0.997132 -0.0161531 0)
(0.996952 -0.0158928 0)
(0.996777 -0.0156286 0)
(0.996604 -0.0153623 0)
(0.996436 -0.0150952 0)
(0.996272 -0.0148289 0)
(0.996116 -0.0145644 0)
(0.99597 -0.0143026 0)
(0.995836 -0.0140442 0)
(0.995715 -0.0137896 0)
(0.995605 -0.0135393 0)
(0.995506 -0.0132938 0)
(0.995415 -0.0130534 0)
(0.99533 -0.0128187 0)
(0.995251 -0.01259 0)
(0.995176 -0.0123677 0)
(0.995104 -0.0121521 0)
(0.995036 -0.0119435 0)
(0.994971 -0.0117419 0)
(0.994909 -0.0115476 0)
(0.99485 -0.0113606 0)
(0.994795 -0.011181 0)
(1.00213 -0.000400087 0)
(1.00215 -0.00140066 0)
(1.00219 -0.0022326 0)
(1.00225 -0.00312837 0)
(1.00232 -0.0039915 0)
(1.0024 -0.00484962 0)
(1.00249 -0.00570706 0)
(1.00259 -0.00656379 0)
(1.00269 -0.0074213 0)
(1.00279 -0.00827924 0)
(1.00289 -0.00913683 0)
(1.00299 -0.00999272 0)
(1.00308 -0.0108445 0)
(1.00316 -0.0116892 0)
(1.00323 -0.0125235 0)
(1.00328 -0.0133439 0)
(1.00331 -0.0141464 0)
(1.00332 -0.0149267 0)
(1.00331 -0.0156809 0)
(1.00327 -0.0164047 0)
(1.00321 -0.017094 0)
(1.00312 -0.0177451 0)
(1.00301 -0.0183544 0)
(1.00287 -0.0189191 0)
(1.0027 -0.0194365 0)
(1.00251 -0.0199044 0)
(1.00229 -0.0203215 0)
(1.00205 -0.0206866 0)
(1.00179 -0.0209994 0)
(1.00151 -0.02126 0)
(1.00122 -0.0214691 0)
(1.00091 -0.0216278 0)
(1.00059 -0.0217376 0)
(1.00027 -0.0218004 0)
(0.999935 -0.0218185 0)
(0.999599 -0.0217943 0)
(0.99926 -0.0217304 0)
(0.998922 -0.0216297 0)
(0.998586 -0.021495 0)
(0.998253 -0.0213292 0)
(0.997925 -0.0211354 0)
(0.997603 -0.0209165 0)
(0.997288 -0.0206754 0)
(0.996981 -0.020415 0)
(0.996683 -0.0201381 0)
(0.996395 -0.0198475 0)
(0.996117 -0.0195456 0)
(0.99585 -0.019235 0)
(0.995596 -0.0189178 0)
(0.995357 -0.018596 0)
(0.995133 -0.0182712 0)
(0.994925 -0.0179449 0)
(0.99473 -0.0176182 0)
(0.994545 -0.0172925 0)
(0.994366 -0.0169689 0)
(0.994192 -0.0166488 0)
(0.99402 -0.0163332 0)
(0.993852 -0.0160233 0)
(0.993687 -0.0157198 0)
(0.99353 -0.0154235 0)
(0.993379 -0.0151347 0)
(0.993237 -0.0148538 0)
(0.993104 -0.0145812 0)
(0.99298 -0.0143169 0)
(0.992864 -0.0140611 0)
(0.992756 -0.013814 0)
(0.992655 -0.0135756 0)
(0.992561 -0.013346 0)
(0.992473 -0.0131253 0)
(1.0028 -0.000457319 0)
(1.00282 -0.00159233 0)
(1.00288 -0.00253876 0)
(1.00295 -0.00355779 0)
(1.00304 -0.00453746 0)
(1.00315 -0.00551257 0)
(1.00326 -0.00648648 0)
(1.00339 -0.00745942 0)
(1.00352 -0.00843344 0)
(1.00366 -0.00940886 0)
(1.00379 -0.0103846 0)
(1.00392 -0.0113594 0)
(1.00404 -0.0123309 0)
(1.00415 -0.0132963 0)
(1.00424 -0.0142521 0)
(1.00432 -0.0151944 0)
(1.00436 -0.0161188 0)
(1.00438 -0.0170208 0)
(1.00438 -0.0178958 0)
(1.00434 -0.0187389 0)
(1.00426 -0.0195455 0)
(1.00415 -0.0203112 0)
(1.00401 -0.0210319 0)
(1.00383 -0.0217037 0)
(1.00361 -0.0223231 0)
(1.00336 -0.0228876 0)
(1.00308 -0.0233948 0)
(1.00276 -0.0238434 0)
(1.00242 -0.0242324 0)
(1.00206 -0.0245615 0)
(1.00167 -0.0248309 0)
(1.00126 -0.0250416 0)
(1.00084 -0.0251949 0)
(1.0004 -0.0252927 0)
(0.999952 -0.0253374 0)
(0.999499 -0.0253316 0)
(0.999042 -0.0252782 0)
(0.998585 -0.0251804 0)
(0.998129 -0.0250417 0)
(0.997677 -0.0248655 0)
(0.997231 -0.0246553 0)
(0.996792 -0.0244148 0)
(0.996364 -0.0241473 0)
(0.995946 -0.023856 0)
(0.99554 -0.0235441 0)
(0.995146 -0.0232145 0)
(0.994766 -0.0228699 0)
(0.994399 -0.0225129 0)
(0.994044 -0.0221459 0)
(0.9937 -0.0217712 0)
(0.993366 -0.0213911 0)
(0.993041 -0.021008 0)
(0.992728 -0.0206238 0)
(0.992429 -0.0202405 0)
(0.992147 -0.0198597 0)
(0.991886 -0.0194826 0)
(0.991646 -0.0191103 0)
(0.991426 -0.0187436 0)
(0.991223 -0.0183832 0)
(0.991034 -0.0180301 0)
(0.990857 -0.0176849 0)
(0.990689 -0.0173483 0)
(0.990531 -0.0170208 0)
(0.99038 -0.016703 0)
(0.990237 -0.0163951 0)
(0.990101 -0.0160974 0)
(0.989973 -0.0158101 0)
(0.989852 -0.0155335 0)
(0.989737 -0.0152674 0)
(1.00353 -0.000510169 0)
(1.00356 -0.00176655 0)
(1.00363 -0.00281637 0)
(1.00371 -0.00394708 0)
(1.00382 -0.00503246 0)
(1.00396 -0.00611434 0)
(1.0041 -0.00719469 0)
(1.00426 -0.00827468 0)
(1.00443 -0.00935638 0)
(1.0046 -0.010441 0)
(1.00477 -0.0115275 0)
(1.00494 -0.0126145 0)
(1.00509 -0.0137002 0)
(1.00523 -0.0147817 0)
(1.00535 -0.015856 0)
(1.00545 -0.0169186 0)
(1.00552 -0.017965 0)
(1.00556 -0.0189904 0)
(1.00555 -0.0199896 0)
(1.00551 -0.0209574 0)
(1.00543 -0.0218884 0)
(1.00531 -0.0227777 0)
(1.00513 -0.0236202 0)
(1.00492 -0.0244114 0)
(1.00465 -0.025147 0)
(1.00435 -0.0258233 0)
(1.004 -0.0264373 0)
(1.00361 -0.026987 0)
(1.00318 -0.0274705 0)
(1.00272 -0.0278869 0)
(1.00223 -0.0282358 0)
(1.00171 -0.0285177 0)
(1.00117 -0.0287337 0)
(1.00061 -0.0288855 0)
(1.00004 -0.0289752 0)
(0.999461 -0.0290054 0)
(0.998873 -0.0289792 0)
(0.998282 -0.0288998 0)
(0.997693 -0.0287707 0)
(0.997107 -0.0285955 0)
(0.996528 -0.028378 0)
(0.995959 -0.028122 0)
(0.995401 -0.0278314 0)
(0.994856 -0.0275099 0)
(0.994325 -0.0271615 0)
(0.993811 -0.0267899 0)
(0.993313 -0.0263991 0)
(0.992835 -0.0259925 0)
(0.992376 -0.0255736 0)
(0.991939 -0.0251456 0)
(0.991526 -0.0247111 0)
(0.991137 -0.0242726 0)
(0.990771 -0.023832 0)
(0.990423 -0.0233911 0)
(0.99009 -0.0229518 0)
(0.989767 -0.0225155 0)
(0.989452 -0.022084 0)
(0.989147 -0.0216587 0)
(0.988853 -0.0212409 0)
(0.988572 -0.0208315 0)
(0.988306 -0.0204314 0)
(0.988055 -0.0200412 0)
(0.987819 -0.0196614 0)
(0.987599 -0.0192925 0)
(0.987393 -0.0189349 0)
(0.9872 -0.0185887 0)
(0.98702 -0.0182542 0)
(0.986852 -0.0179316 0)
(0.986695 -0.0176211 0)
(1.0043 -0.000558871 0)
(1.00434 -0.00192518 0)
(1.00442 -0.00306904 0)
(1.00452 -0.00430176 0)
(1.00466 -0.00548351 0)
(1.00482 -0.00666343 0)
(1.005 -0.00784182 0)
(1.00519 -0.00902106 0)
(1.00539 -0.0102032 0)
(1.0056 -0.01139 0)
(1.00581 -0.0125812 0)
(1.00602 -0.0137754 0)
(1.00621 -0.0149711 0)
(1.00639 -0.016166 0)
(1.00654 -0.0173568 0)
(1.00667 -0.0185393 0)
(1.00677 -0.019709 0)
(1.00682 -0.0208607 0)
(1.00684 -0.0219887 0)
(1.0068 -0.0230878 0)
(1.00672 -0.0241517 0)
(1.00658 -0.0251747 0)
(1.00639 -0.0261512 0)
(1.00614 -0.0270756 0)
(1.00583 -0.0279428 0)
(1.00547 -0.0287483 0)
(1.00506 -0.0294878 0)
(1.0046 -0.0301582 0)
(1.00408 -0.0307568 0)
(1.00353 -0.0312819 0)
(1.00293 -0.0317322 0)
(1.0023 -0.0321076 0)
(1.00164 -0.0324085 0)
(1.00095 -0.0326361 0)
(1.00024 -0.0327922 0)
(0.999524 -0.0328794 0)
(0.998792 -0.0329004 0)
(0.998056 -0.0328588 0)
(0.997318 -0.0327583 0)
(0.996583 -0.0326032 0)
(0.995855 -0.0323977 0)
(0.995136 -0.0321465 0)
(0.99443 -0.031854 0)
(0.993739 -0.0315247 0)
(0.993066 -0.031163 0)
(0.992411 -0.0307729 0)
(0.991777 -0.0303582 0)
(0.991164 -0.0299225 0)
(0.990572 -0.0294689 0)
(0.99 -0.0290007 0)
(0.989447 -0.0285209 0)
(0.988912 -0.0280326 0)
(0.988397 -0.0275389 0)
(0.987904 -0.0270425 0)
(0.987438 -0.026546 0)
(0.987002 -0.0260518 0)
(0.986596 -0.0255614 0)
(0.98622 -0.0250766 0)
(0.985869 -0.0245987 0)
(0.985541 -0.0241289 0)
(0.985232 -0.0236684 0)
(0.98494 -0.0232182 0)
(0.984664 -0.0227793 0)
(0.984402 -0.0223523 0)
(0.984153 -0.0219378 0)
(0.983918 -0.0215363 0)
(0.983696 -0.0211482 0)
(0.983487 -0.0207737 0)
(0.98329 -0.020413 0)
(1.0051 -0.000603596 0)
(1.00514 -0.00207021 0)
(1.00524 -0.00330107 0)
(1.00536 -0.00462808 0)
(1.00552 -0.00589845 0)
(1.00571 -0.0071692 0)
(1.00592 -0.00843894 0)
(1.00615 -0.00971074 0)
(1.00639 -0.0109873 0)
(1.00664 -0.0122704 0)
(1.00689 -0.0135609 0)
(1.00714 -0.0148581 0)
(1.00737 -0.0161606 0)
(1.00759 -0.0174662 0)
(1.00779 -0.018772 0)
(1.00796 -0.0200741 0)
(1.00808 -0.021368 0)
(1.00817 -0.0226485 0)
(1.0082 -0.0239099 0)
(1.00819 -0.0251461 0)
(1.00811 -0.0263508 0)
(1.00797 -0.0275174 0)
(1.00776 -0.0286395 0)
(1.00749 -0.0297106 0)
(1.00715 -0.0307248 0)
(1.00675 -0.0316764 0)
(1.00627 -0.0325602 0)
(1.00574 -0.0333715 0)
(1.00514 -0.0341067 0)
(1.00449 -0.0347629 0)
(1.00379 -0.0353379 0)
(1.00305 -0.0358306 0)
(1.00226 -0.0362405 0)
(1.00144 -0.0365681 0)
(1.00059 -0.0368146 0)
(0.999724 -0.0369822 0)
(0.99884 -0.0370735 0)
(0.997945 -0.0370917 0)
(0.997047 -0.0370407 0)
(0.996149 -0.0369245 0)
(0.995257 -0.0367474 0)
(0.994375 -0.0365139 0)
(0.993506 -0.0362285 0)
(0.992655 -0.0358961 0)
(0.991823 -0.0355213 0)
(0.991014 -0.0351091 0)
(0.990229 -0.0346646 0)
(0.989471 -0.0341925 0)
(0.988741 -0.0336978 0)
(0.988041 -0.0331851 0)
(0.987374 -0.0326585 0)
(0.986742 -0.0321218 0)
(0.986143 -0.0315781 0)
(0.985574 -0.0310301 0)
(0.985029 -0.0304803 0)
(0.984506 -0.0299309 0)
(0.984 -0.0293844 0)
(0.983512 -0.0288427 0)
(0.983044 -0.0283078 0)
(0.982597 -0.0277814 0)
(0.982175 -0.0272648 0)
(0.981776 -0.0267591 0)
(0.981402 -0.0262653 0)
(0.981051 -0.0257842 0)
(0.980722 -0.0253164 0)
(0.980414 -0.0248626 0)
(0.980125 -0.0244231 0)
(0.979854 -0.0239984 0)
(0.9796 -0.0235888 0)
(1.0059 -0.000645083 0)
(1.00595 -0.0022045 0)
(1.00606 -0.00351716 0)
(1.0062 -0.0049324 0)
(1.00639 -0.00628554 0)
(1.0066 -0.00764128 0)
(1.00685 -0.0089968 0)
(1.00711 -0.0103554 0)
(1.00739 -0.0117212 0)
(1.00769 -0.0130957 0)
(1.00798 -0.0144808 0)
(1.00828 -0.0158768 0)
(1.00856 -0.0172827 0)
(1.00883 -0.0186962 0)
(1.00908 -0.0201149 0)
(1.00929 -0.0215354 0)
(1.00946 -0.0229536 0)
(1.00958 -0.0243642 0)
(1.00965 -0.0257616 0)
(1.00966 -0.0271394 0)
(1.0096 -0.0284909 0)
(1.00947 -0.0298091 0)
(1.00926 -0.0310866 0)
(1.00898 -0.0323164 0)
(1.00862 -0.0334914 0)
(1.00817 -0.0346049 0)
(1.00765 -0.0356505 0)
(1.00706 -0.0366221 0)
(1.00639 -0.0375148 0)
(1.00565 -0.0383244 0)
(1.00485 -0.0390475 0)
(1.00399 -0.0396817 0)
(1.00307 -0.0402255 0)
(1.00212 -0.0406784 0)
(1.00112 -0.0410407 0)
(1.0001 -0.0413137 0)
(0.999055 -0.0414998 0)
(0.997993 -0.0416017 0)
(0.996922 -0.041623 0)
(0.995848 -0.0415679 0)
(0.994777 -0.041441 0)
(0.993714 -0.0412475 0)
(0.992664 -0.0409928 0)
(0.991632 -0.0406825 0)
(0.990622 -0.0403222 0)
(0.989635 -0.0399174 0)
(0.988676 -0.0394731 0)
(0.987747 -0.0389942 0)
(0.986848 -0.0384852 0)
(0.985979 -0.0379501 0)
(0.98514 -0.0373933 0)
(0.98433 -0.0368186 0)
(0.98355 -0.0362302 0)
(0.982802 -0.0356324 0)
(0.982091 -0.0350288 0)
(0.981421 -0.0344231 0)
(0.980792 -0.0338181 0)
(0.980205 -0.0332162 0)
(0.979655 -0.0326197 0)
(0.979138 -0.0320305 0)
(0.978651 -0.0314503 0)
(0.978189 -0.0308809 0)
(0.977752 -0.0303237 0)
(0.977339 -0.0297797 0)
(0.976947 -0.0292501 0)
(0.976578 -0.0287357 0)
(0.976229 -0.028237 0)
(0.9759 -0.0277548 0)
(0.975591 -0.0272893 0)
(1.0067 -0.000684522 0)
(1.00676 -0.0023313 0)
(1.00688 -0.00372151 0)
(1.00704 -0.0052202 0)
(1.00725 -0.00665181 0)
(1.0075 -0.00808795 0)
(1.00777 -0.00952442 0)
(1.00808 -0.0109649 0)
(1.00841 -0.0124151 0)
(1.00875 -0.0138769 0)
(1.00909 -0.0153523 0)
(1.00944 -0.0168428 0)
(1.00978 -0.0183478 0)
(1.0101 -0.0198656 0)
(1.0104 -0.0213942 0)
(1.01066 -0.0229309 0)
(1.01089 -0.0244717 0)
(1.01106 -0.026012 0)
(1.01117 -0.0275461 0)
(1.01121 -0.0290675 0)
(1.01119 -0.0305696 0)
(1.01108 -0.0320448 0)
(1.01088 -0.0334852 0)
(1.0106 -0.0348831 0)
(1.01023 -0.0362302 0)
(1.00977 -0.037519 0)
(1.00921 -0.0387418 0)
(1.00856 -0.0398913 0)
(1.00782 -0.040961 0)
(1.007 -0.0419452 0)
(1.00611 -0.0428391 0)
(1.00514 -0.0436388 0)
(1.0041 -0.0443414 0)
(1.00301 -0.0449451 0)
(1.00187 -0.0454492 0)
(1.00069 -0.045854 0)
(0.999475 -0.0461608 0)
(0.998237 -0.046372 0)
(0.996983 -0.0464906 0)
(0.99572 -0.0465205 0)
(0.994457 -0.0464662 0)
(0.993199 -0.0463323 0)
(0.991954 -0.0461242 0)
(0.990726 -0.0458472 0)
(0.989522 -0.0455069 0)
(0.988344 -0.0451091 0)
(0.987197 -0.0446599 0)
(0.986084 -0.0441656 0)
(0.985007 -0.0436325 0)
(0.98397 -0.0430669 0)
(0.982976 -0.0424749 0)
(0.982027 -0.0418619 0)
(0.981124 -0.0412326 0)
(0.980264 -0.040591 0)
(0.979444 -0.0399407 0)
(0.978656 -0.039285 0)
(0.977898 -0.0386271 0)
(0.97717 -0.0379702 0)
(0.976472 -0.0373172 0)
(0.975808 -0.0366707 0)
(0.975178 -0.0360328 0)
(0.974584 -0.0354054 0)
(0.974024 -0.0347901 0)
(0.973498 -0.0341883 0)
(0.973005 -0.0336011 0)
(0.972541 -0.0330296 0)
(0.972106 -0.0324746 0)
(0.971698 -0.0319367 0)
(0.971315 -0.0314168 0)
(1.00751 -0.000722777 0)
(1.00757 -0.00245296 0)
(1.0077 -0.0039172 0)
(1.00788 -0.00549541 0)
(1.00812 -0.00700196 0)
(1.0084 -0.00851479 0)
(1.00871 -0.0100281 0)
(1.00906 -0.0115463 0)
(1.00943 -0.0130764 0)
(1.00982 -0.0146211 0)
(1.01022 -0.0161826 0)
(1.01062 -0.0177628 0)
(1.01101 -0.0193619 0)
(1.0114 -0.0209794 0)
(1.01175 -0.0226138 0)
(1.01208 -0.0242629 0)
(1.01236 -0.0259232 0)
(1.01259 -0.0275905 0)
(1.01275 -0.0292596 0)
(1.01285 -0.0309243 0)
(1.01286 -0.0325778 0)
(1.01279 -0.0342125 0)
(1.01262 -0.0358201 0)
(1.01236 -0.0373923 0)
(1.01199 -0.03892 0)
(1.01151 -0.0403945 0)
(1.01093 -0.0418072 0)
(1.01025 -0.0431494 0)
(1.00946 -0.0444132 0)
(1.00857 -0.0455913 0)
(1.00759 -0.0466771 0)
(1.00652 -0.0476651 0)
(1.00537 -0.0485507 0)
(1.00414 -0.0493306 0)
(1.00286 -0.0500027 0)
(1.00152 -0.0505658 0)
(1.00013 -0.0510203 0)
(0.99871 -0.0513672 0)
(0.997265 -0.0516091 0)
(0.995805 -0.0517491 0)
(0.994337 -0.0517915 0)
(0.992871 -0.0517413 0)
(0.991413 -0.0516041 0)
(0.989971 -0.0513862 0)
(0.988551 -0.0510942 0)
(0.987158 -0.0507351 0)
(0.985798 -0.0503153 0)
(0.984473 -0.0498414 0)
(0.983187 -0.0493192 0)
(0.981943 -0.0487544 0)
(0.98074 -0.0481522 0)
(0.979578 -0.047518 0)
(0.978457 -0.0468573 0)
(0.977381 -0.0461756 0)
(0.976352 -0.0454783 0)
(0.975376 -0.0447708 0)
(0.974456 -0.0440572 0)
(0.973591 -0.0433415 0)
(0.972778 -0.0426267 0)
(0.972012 -0.0419161 0)
(0.971289 -0.0412121 0)
(0.970604 -0.0405174 0)
(0.969955 -0.0398342 0)
(0.969341 -0.0391644 0)
(0.96876 -0.0385096 0)
(0.968212 -0.0378712 0)
(0.967695 -0.0372505 0)
(0.967208 -0.0366483 0)
(0.966749 -0.0360655 0)
(1.00832 -0.000759988 0)
(1.00839 -0.00257025 0)
(1.00854 -0.00410593 0)
(1.00874 -0.00576026 0)
(1.009 -0.00733839 0)
(1.0093 -0.00892452 0)
(1.00965 -0.010511 0)
(1.01004 -0.0121032 0)
(1.01046 -0.0137087 0)
(1.01089 -0.0153318 0)
(1.01135 -0.0169744 0)
(1.01181 -0.0186388 0)
(1.01226 -0.0203267 0)
(1.01271 -0.0220384 0)
(1.01313 -0.023773 0)
(1.01352 -0.025529 0)
(1.01387 -0.0273037 0)
(1.01416 -0.0290933 0)
(1.01439 -0.0308934 0)
(1.01454 -0.0326982 0)
(1.01461 -0.0345009 0)
(1.01459 -0.0362943 0)
(1.01446 -0.0380701 0)
(1.01423 -0.0398192 0)
(1.01388 -0.0415323 0)
(1.01341 -0.0431996 0)
(1.01282 -0.0448113 0)
(1.01212 -0.0463581 0)
(1.01129 -0.0478302 0)
(1.01035 -0.0492187 0)
(1.00929 -0.0505154 0)
(1.00813 -0.0517126 0)
(1.00687 -0.0528042 0)
(1.00553 -0.0537849 0)
(1.0041 -0.0546509 0)
(1.0026 -0.0553993 0)
(1.00105 -0.056029 0)
(0.999443 -0.0565398 0)
(0.997803 -0.0569331 0)
(0.996136 -0.0572112 0)
(0.994453 -0.0573778 0)
(0.992765 -0.0574373 0)
(0.991081 -0.0573948 0)
(0.98941 -0.057256 0)
(0.987759 -0.057027 0)
(0.986136 -0.0567143 0)
(0.984546 -0.0563246 0)
(0.982996 -0.0558655 0)
(0.98149 -0.0553447 0)
(0.980032 -0.0547702 0)
(0.978627 -0.05415 0)
(0.977278 -0.0534917 0)
(0.975988 -0.0528022 0)
(0.974757 -0.0520873 0)
(0.973581 -0.0513521 0)
(0.972454 -0.0506014 0)
(0.971372 -0.0498396 0)
(0.970333 -0.0490714 0)
(0.969338 -0.0483011 0)
(0.96839 -0.0475325 0)
(0.96749 -0.0467691 0)
(0.966639 -0.0460137 0)
(0.965837 -0.045269 0)
(0.965083 -0.0445371 0)
(0.964372 -0.0438198 0)
(0.963705 -0.043119 0)
(0.963078 -0.0424359 0)
(0.962489 -0.0417719 0)
(0.961935 -0.0411281 0)
(1.00912 -0.000795977 0)
(1.0092 -0.00268312 0)
(1.00937 -0.00428799 0)
(1.00959 -0.00601517 0)
(1.00987 -0.00766142 0)
(1.01021 -0.00931737 0)
(1.01059 -0.0109732 0)
(1.01102 -0.0126356 0)
(1.01148 -0.014312 0)
(1.01197 -0.0160083 0)
(1.01248 -0.0177265 0)
(1.013 -0.0194694 0)
(1.01352 -0.0212398 0)
(1.01403 -0.023039 0)
(1.01452 -0.0248669 0)
(1.01498 -0.0267229 0)
(1.0154 -0.0286048 0)
(1.01576 -0.0305099 0)
(1.01606 -0.0324345 0)
(1.01629 -0.0343735 0)
(1.01642 -0.0363205 0)
(1.01646 -0.0382687 0)
(1.01638 -0.0402099 0)
(1.0162 -0.0421351 0)
(1.01588 -0.0440347 0)
(1.01544 -0.0458981 0)
(1.01487 -0.0477148 0)
(1.01415 -0.0494743 0)
(1.01331 -0.0511656 0)
(1.01233 -0.0527782 0)
(1.01122 -0.0543019 0)
(1.00999 -0.0557274 0)
(1.00864 -0.0570464 0)
(1.00718 -0.0582516 0)
(1.00562 -0.059337 0)
(1.00397 -0.0602981 0)
(1.00225 -0.0611315 0)
(1.00046 -0.0618355 0)
(0.998624 -0.0624099 0)
(0.996746 -0.0628558 0)
(0.994842 -0.0631756 0)
(0.992922 -0.0633729 0)
(0.990999 -0.0634527 0)
(0.989082 -0.0634208 0)
(0.987182 -0.0632842 0)
(0.985306 -0.0630504 0)
(0.983463 -0.0627275 0)
(0.98166 -0.0623235 0)
(0.979901 -0.061846 0)
(0.978192 -0.0613024 0)
(0.976536 -0.0606995 0)
(0.974933 -0.0600441 0)
(0.973384 -0.059343 0)
(0.971891 -0.0586036 0)
(0.970459 -0.0578333 0)
(0.969094 -0.0570393 0)
(0.9678 -0.0562282 0)
(0.966578 -0.0554053 0)
(0.965426 -0.0545755 0)
(0.964339 -0.0537431 0)
(0.96331 -0.0529122 0)
(0.962337 -0.0520865 0)
(0.961414 -0.0512695 0)
(0.960541 -0.050464 0)
(0.959715 -0.0496729 0)
(0.958935 -0.0488982 0)
(0.958199 -0.0481419 0)
(0.957506 -0.0474057 0)
(0.956854 -0.046691 0)
(1.00992 -0.000830674 0)
(1.01001 -0.00279135 0)
(1.01018 -0.00446259 0)
(1.01042 -0.00625914 0)
(1.01073 -0.00796981 0)
(1.0111 -0.00969184 0)
(1.01152 -0.011413 0)
(1.01199 -0.0131411 0)
(1.0125 -0.0148836 0)
(1.01303 -0.0166472 0)
(1.0136 -0.0184349 0)
(1.01417 -0.0202498 0)
(1.01476 -0.0220958 0)
(1.01534 -0.0239748 0)
(1.0159 -0.0258881 0)
(1.01644 -0.0278355 0)
(1.01693 -0.0298161 0)
(1.01738 -0.031828 0)
(1.01776 -0.0338684 0)
(1.01806 -0.0359334 0)
(1.01827 -0.0380171 0)
(1.01838 -0.0401132 0)
(1.01838 -0.0422143 0)
(1.01825 -0.0443115 0)
(1.01799 -0.0463952 0)
(1.01759 -0.0484545 0)
(1.01705 -0.0504785 0)
(1.01636 -0.0524555 0)
(1.01551 -0.0543735 0)
(1.01451 -0.0562206 0)
(1.01337 -0.057985 0)
(1.01208 -0.0596554 0)
(1.01066 -0.0612214 0)
(1.0091 -0.0626734 0)
(1.00742 -0.0640032 0)
(1.00564 -0.0652039 0)
(1.00376 -0.0662699 0)
(1.00179 -0.0671973 0)
(0.999757 -0.067984 0)
(0.997667 -0.0686293 0)
(0.995535 -0.0691342 0)
(0.993376 -0.0695013 0)
(0.991203 -0.0697344 0)
(0.989027 -0.0698386 0)
(0.986862 -0.0698197 0)
(0.984718 -0.0696843 0)
(0.982605 -0.0694397 0)
(0.980532 -0.0690938 0)
(0.978506 -0.0686554 0)
(0.976535 -0.0681339 0)
(0.974625 -0.0675393 0)
(0.972781 -0.0668816 0)
(0.971009 -0.0661703 0)
(0.969312 -0.0654137 0)
(0.967689 -0.0646191 0)
(0.966134 -0.0637929 0)
(0.964641 -0.0629416 0)
(0.963207 -0.0620714 0)
(0.961833 -0.0611886 0)
(0.960521 -0.0602991 0)
(0.959275 -0.0594079 0)
(0.958095 -0.0585195 0)
(0.956981 -0.0576377 0)
(0.955931 -0.056766 0)
(0.954942 -0.0559072 0)
(0.954012 -0.055064 0)
(0.953137 -0.0542388 0)
(0.952314 -0.0534335 0)
(0.951542 -0.05265 0)
(1.0107 -0.000864014 0)
(1.01079 -0.00289451 0)
(1.01098 -0.00462861 0)
(1.01124 -0.00649075 0)
(1.01157 -0.0082619 0)
(1.01197 -0.0100459 0)
(1.01243 -0.011828 0)
(1.01293 -0.0136169 0)
(1.01349 -0.0154201 0)
(1.01407 -0.0172449 0)
(1.01469 -0.0190953 0)
(1.01533 -0.0209753 0)
(1.01598 -0.0228892 0)
(1.01663 -0.0248397 0)
(1.01727 -0.0268293 0)
(1.01788 -0.0288586 0)
(1.01846 -0.0309281 0)
(1.01899 -0.0330368 0)
(1.01946 -0.0351828 0)
(1.01985 -0.0373635 0)
(1.02015 -0.0395741 0)
(1.02034 -0.0418091 0)
(1.02042 -0.0440619 0)
(1.02037 -0.046324 0)
(1.02018 -0.0485863 0)
(1.01985 -0.0508381 0)
(1.01935 -0.0530681 0)
(1.0187 -0.0552639 0)
(1.01788 -0.0574129 0)
(1.01689 -0.0595017 0)
(1.01573 -0.0615172 0)
(1.01441 -0.0634463 0)
(1.01293 -0.0652765 0)
(1.01129 -0.0669958 0)
(1.00952 -0.0685935 0)
(1.00761 -0.07006 0)
(1.00558 -0.0713874 0)
(1.00345 -0.0725692 0)
(1.00122 -0.0736008 0)
(0.998925 -0.0744794 0)
(0.996565 -0.0752039 0)
(0.994162 -0.0757751 0)
(0.991731 -0.0761955 0)
(0.989286 -0.0764691 0)
(0.986841 -0.0766016 0)
(0.984411 -0.0766001 0)
(0.982005 -0.0764729 0)
(0.979636 -0.0762291 0)
(0.977313 -0.0758779 0)
(0.975044 -0.0754284 0)
(0.972835 -0.0748894 0)
(0.97069 -0.0742692 0)
(0.968612 -0.0735762 0)
(0.966602 -0.0728196 0)
(0.964666 -0.0720089 0)
(0.962811 -0.0711541 0)
(0.961044 -0.0702644 0)
(0.959371 -0.0693478 0)
(0.957789 -0.0684111 0)
(0.956294 -0.0674606 0)
(0.954878 -0.0665021 0)
(0.953537 -0.0655411 0)
(0.952265 -0.0645828 0)
(0.951061 -0.0636316 0)
(0.949923 -0.0626918 0)
(0.948847 -0.0617667 0)
(0.947833 -0.0608594 0)
(0.946877 -0.0599726 0)
(0.945978 -0.0591084 0)
(1.01147 -0.000895761 0)
(1.01157 -0.00299202 0)
(1.01177 -0.00478517 0)
(1.01204 -0.00670901 0)
(1.0124 -0.00853654 0)
(1.01283 -0.0103781 0)
(1.01332 -0.0122165 0)
(1.01386 -0.0140609 0)
(1.01446 -0.0159193 0)
(1.0151 -0.0177989 0)
(1.01577 -0.0197051 0)
(1.01647 -0.0216429 0)
(1.01718 -0.0236166 0)
(1.0179 -0.0256299 0)
(1.01861 -0.0276863 0)
(1.01931 -0.0297874 0)
(1.01997 -0.0319352 0)
(1.02059 -0.0341295 0)
(1.02115 -0.0363699 0)
(1.02163 -0.0386548 0)
(1.02203 -0.0409808 0)
(1.02232 -0.0433437 0)
(1.0225 -0.0457375 0)
(1.02254 -0.0481551 0)
(1.02244 -0.0505878 0)
(1.02218 -0.0530255 0)
(1.02176 -0.0554568 0)
(1.02116 -0.0578694 0)
(1.02039 -0.0602499 0)
(1.01943 -0.0625842 0)
(1.01828 -0.0648578 0)
(1.01695 -0.0670562 0)
(1.01544 -0.0691647 0)
(1.01375 -0.0711692 0)
(1.0119 -0.0730563 0)
(1.00989 -0.0748138 0)
(1.00773 -0.0764308 0)
(1.00545 -0.077898 0)
(1.00304 -0.0792079 0)
(1.00054 -0.0803549 0)
(0.99796 -0.0813354 0)
(0.995314 -0.082148 0)
(0.99262 -0.0827932 0)
(0.989898 -0.0832734 0)
(0.987162 -0.0835926 0)
(0.98443 -0.0837565 0)
(0.981716 -0.0837716 0)
(0.979034 -0.0836457 0)
(0.976395 -0.0833876 0)
(0.973812 -0.0830075 0)
(0.971293 -0.0825168 0)
(0.968848 -0.0819277 0)
(0.966486 -0.0812526 0)
(0.964214 -0.0805031 0)
(0.962034 -0.0796894 0)
(0.959944 -0.0788203 0)
(0.957936 -0.0779043 0)
(0.956007 -0.07695 0)
(0.954154 -0.0759662 0)
(0.952383 -0.0749615 0)
(0.950697 -0.0739435 0)
(0.949099 -0.0729186 0)
(0.947588 -0.0718927 0)
(0.946162 -0.0708708 0)
(0.944819 -0.0698575 0)
(0.943555 -0.0688568 0)
(0.942365 -0.0678723 0)
(0.941247 -0.0669072 0)
(0.940196 -0.0659645 0)
(1.01222 -0.000925647 0)
(1.01233 -0.00308335 0)
(1.01254 -0.00493189 0)
(1.01283 -0.0069135 0)
(1.01321 -0.00879332 0)
(1.01367 -0.0106879 0)
(1.01419 -0.0125777 0)
(1.01477 -0.0144721 0)
(1.01541 -0.0163804 0)
(1.0161 -0.0183086 0)
(1.01682 -0.0202638 0)
(1.01758 -0.0222519 0)
(1.01836 -0.0242774 0)
(1.01914 -0.0263447 0)
(1.01993 -0.0284583 0)
(1.02071 -0.0306211 0)