/*--------------------------------*- C++ -*----------------------------------*\
  =========                 |
  \\      /  F ield         | OpenFOAM: The Open Source CFD Toolbox
   \\    /   O peration     | Website:  https://openfoam.org
    \\  /    A nd           | Version:  10
     \\/     M anipulation  |
\*---------------------------------------------------------------------------*/
FoamFile
{
    format      ascii;
    class       volVectorField;
    location    "190";
    object      U;
}
// * * * * * * * * * * * * * * * * * * * * * * * * * * * * * * * * * * * * * //

dimensions      [0 1 -1 0 0 0 0];

internalField   nonuniform List<vector> 
66268
(
(1 -4.30618e-05 0)
(1 -0.000157985 0)
(1 -0.000252104 0)
(1 -0.000350716 0)
(1 -0.000447238 0)
(1 -0.000542335 0)
(1 -0.000636634 0)
(1 -0.00073019 0)
(1 -0.000822913 0)
(1 -0.000914659 0)
(1 -0.0010052 0)
(1 -0.00109426 0)
(1 -0.00118147 0)
(1 -0.00126646 0)
(1 -0.00134881 0)
(1 -0.00142812 0)
(1 -0.00150395 0)
(1 -0.00157592 0)
(1 -0.00164365 0)
(1 -0.00170679 0)
(1 -0.00176507 0)
(1 -0.00181823 0)
(1 -0.0018661 0)
(1 -0.00190854 0)
(1 -0.00194549 0)
(1 -0.00197693 0)
(1 -0.00200291 0)
(1 -0.00202352 0)
(1 -0.00203891 0)
(1 -0.00204926 0)
(1 -0.00205478 0)
(1 -0.00205574 0)
(1 -0.00205239 0)
(1 -0.00204505 0)
(1 -0.00203401 0)
(1 -0.00201962 0)
(1 -0.00200222 0)
(1 -0.00198212 0)
(0.999999 -0.00195966 0)
(0.999999 -0.00193514 0)
(0.999999 -0.00190881 0)
(0.999999 -0.0018809 0)
(0.999998 -0.00185161 0)
(0.999998 -0.00182111 0)
(0.999997 -0.00178955 0)
(0.999996 -0.00175711 0)
(0.999995 -0.00172392 0)
(0.999993 -0.00169016 0)
(0.99999 -0.00165599 0)
(0.999986 -0.0016216 0)
(0.999981 -0.00158718 0)
(0.999976 -0.00155294 0)
(0.999971 -0.00151909 0)
(0.999966 -0.0014858 0)
(0.999963 -0.00145321 0)
(0.999962 -0.00142142 0)
(0.999962 -0.00139051 0)
(0.999963 -0.00136051 0)
(0.999966 -0.00133146 0)
(0.999968 -0.00130337 0)
(0.999971 -0.00127627 0)
(0.999974 -0.00125016 0)
(0.999977 -0.00122505 0)
(0.999979 -0.00120093 0)
(0.999981 -0.00117781 0)
(0.999982 -0.00115566 0)
(0.999983 -0.00113447 0)
(0.999984 -0.00111426 0)
(0.999985 -0.00109503 0)
(1.00019 -0.000125666 0)
(1.00018 -0.000453942 0)
(1.00019 -0.000722448 0)
(1.00019 -0.00100726 0)
(1.0002 -0.00128533 0)
(1.0002 -0.0015598 0)
(1.00021 -0.00183279 0)
(1.00021 -0.00210432 0)
(1.00022 -0.00237421 0)
(1.00023 -0.00264206 0)
(1.00023 -0.00290726 0)
(1.00024 -0.00316896 0)
(1.00024 -0.00342613 0)
(1.00024 -0.00367765 0)
(1.00024 -0.00392229 0)
(1.00024 -0.00415879 0)
(1.00024 -0.00438589 0)
(1.00023 -0.00460236 0)
(1.00023 -0.00480703 0)
(1.00022 -0.00499884 0)
(1.00021 -0.00517687 0)
(1.0002 -0.00534031 0)
(1.00018 -0.00548854 0)
(1.00017 -0.00562109 0)
(1.00015 -0.00573768 0)
(1.00013 -0.0058382 0)
(1.00011 -0.0059227 0)
(1.00009 -0.00599139 0)
(1.00007 -0.00604463 0)
(1.00004 -0.00608292 0)
(1.00002 -0.00610689 0)
(0.999995 -0.00611726 0)
(0.99997 -0.00611483 0)
(0.999944 -0.00610047 0)
(0.999918 -0.00607503 0)
(0.999892 -0.00603939 0)
(0.999867 -0.00599442 0)
(0.999841 -0.00594096 0)
(0.999816 -0.00587984 0)
(0.999792 -0.00581192 0)
(0.999768 -0.00573805 0)
(0.999744 -0.00565911 0)
(0.999721 -0.00557599 0)
(0.999698 -0.00548954 0)
(0.999676 -0.00540057 0)
(0.999654 -0.00530983 0)
(0.999633 -0.00521796 0)
(0.999614 -0.00512551 0)
(0.999595 -0.00503293 0)
(0.999579 -0.00494061 0)
(0.999564 -0.00484882 0)
(0.999552 -0.0047578 0)
(0.99954 -0.00466775 0)
(0.99953 -0.00457883 0)
(0.999519 -0.00449122 0)
(0.999507 -0.00440511 0)
(0.999495 -0.00432066 0)
(0.999482 -0.00423805 0)
(0.999468 -0.00415741 0)
(0.999455 -0.00407885 0)
(0.999442 -0.00400245 0)
(0.99943 -0.00392828 0)
(0.999418 -0.00385638 0)
(0.999408 -0.0037868 0)
(0.999398 -0.00371954 0)
(0.999389 -0.00365464 0)
(0.999381 -0.00359208 0)
(0.999374 -0.00353188 0)
(0.999367 -0.00347412 0)
(1.00055 -0.000202314 0)
(1.00055 -0.000720908 0)
(1.00056 -0.00114537 0)
(1.00057 -0.00160077 0)
(1.00059 -0.00204418 0)
(1.0006 -0.00248315 0)
(1.00062 -0.00292129 0)
(1.00064 -0.00335852 0)
(1.00066 -0.00379468 0)
(1.00068 -0.00422929 0)
(1.00069 -0.0046614 0)
(1.00071 -0.00508968 0)
(1.00072 -0.00551252 0)
(1.00073 -0.00592808 0)
(1.00074 -0.00633435 0)
(1.00074 -0.00672922 0)
(1.00073 -0.00711057 0)
(1.00072 -0.00747628 0)
(1.00071 -0.00782432 0)
(1.00068 -0.00815282 0)
(1.00066 -0.00846008 0)
(1.00062 -0.00874461 0)
(1.00058 -0.0090052 0)
(1.00054 -0.0092409 0)
(1.00049 -0.00945103 0)
(1.00044 -0.00963521 0)
(1.00038 -0.00979336 0)
(1.00031 -0.00992565 0)
(1.00025 -0.0100325 0)
(1.00018 -0.0101146 0)
(1.00011 -0.0101727 0)
(1.00004 -0.010208 0)
(0.999961 -0.0102215 0)
(0.999886 -0.0102145 0)
(0.999811 -0.0101885 0)
(0.999736 -0.0101447 0)
(0.999662 -0.0100848 0)
(0.999588 -0.0100103 0)
(0.999516 -0.00992262 0)
(0.999446 -0.00982343 0)
(0.999377 -0.00971413 0)
(0.99931 -0.00959608 0)
(0.999245 -0.00947049 0)
(0.999182 -0.00933844 0)
(0.999122 -0.00920094 0)
(0.999064 -0.00905889 0)
(0.999007 -0.00891318 0)
(0.998953 -0.00876465 0)
(0.998901 -0.00861413 0)
(0.99885 -0.00846243 0)
(0.998801 -0.00831033 0)
(0.998753 -0.00815858 0)
(0.998707 -0.00800786 0)
(0.998665 -0.00785877 0)
(0.998626 -0.00771182 0)
(0.998591 -0.00756739 0)
(0.998559 -0.00742583 0)
(0.998532 -0.00728739 0)
(0.998508 -0.00715232 0)
(0.998486 -0.00702082 0)
(0.998465 -0.00689305 0)
(0.998447 -0.00676916 0)
(0.998429 -0.00664927 0)
(0.998412 -0.00653346 0)
(0.998396 -0.00642178 0)
(0.998381 -0.00631427 0)
(0.998367 -0.00621091 0)
(0.998353 -0.00611174 0)
(0.99834 -0.00601675 0)
(1.00103 -0.000271801 0)
(1.00103 -0.000959983 0)
(1.00105 -0.00152586 0)
(1.00108 -0.00213696 0)
(1.00111 -0.00273083 0)
(1.00114 -0.0033211 0)
(1.00118 -0.00391235 0)
(1.00121 -0.00450451 0)
(1.00125 -0.00509764 0)
(1.00129 -0.00569129 0)
(1.00133 -0.0062843 0)
(1.00136 -0.00687496 0)
(1.00139 -0.00746116 0)
(1.00141 -0.00804042 0)
(1.00142 -0.00861 0)
(1.00143 -0.00916695 0)
(1.00142 -0.00970824 0)
(1.00141 -0.0102308 0)
(1.00138 -0.0107318 0)
(1.00135 -0.0112082 0)
(1.0013 -0.0116576 0)
(1.00124 -0.0120776 0)
(1.00117 -0.0124661 0)
(1.00109 -0.0128216 0)
(1.001 -0.0131428 0)
(1.0009 -0.0134288 0)
(1.00079 -0.0136792 0)
(1.00067 -0.0138938 0)
(1.00055 -0.014073 0)
(1.00042 -0.0142173 0)
(1.00029 -0.0143277 0)
(1.00015 -0.0144055 0)
(1.00001 -0.0144521 0)
(0.999866 -0.014469 0)
(0.999723 -0.0144583 0)
(0.99958 -0.0144217 0)
(0.999439 -0.0143612 0)
(0.999299 -0.0142789 0)
(0.999162 -0.0141767 0)
(0.999027 -0.0140565 0)
(0.998896 -0.0139202 0)
(0.998769 -0.0137697 0)
(0.998645 -0.0136068 0)
(0.998526 -0.0134333 0)
(0.998412 -0.013251 0)
(0.998302 -0.0130617 0)
(0.998197 -0.0128669 0)
(0.998097 -0.0126682 0)
(0.998002 -0.0124669 0)
(0.997912 -0.012264 0)
(0.997829 -0.0120606 0)
(0.997752 -0.0118576 0)
(0.997679 -0.0116555 0)
(0.997611 -0.0114551 0)
(0.997545 -0.0112569 0)
(0.997482 -0.0110616 0)
(0.99742 -0.0108697 0)
(0.997361 -0.0106816 0)
(0.997303 -0.0104979 0)
(0.997247 -0.0103187 0)
(0.997195 -0.0101443 0)
(0.997145 -0.00997498 0)
(0.997098 -0.00981085 0)
(0.997055 -0.009652 0)
(0.997015 -0.00949852 0)
(0.996977 -0.00935045 0)
(0.996942 -0.0092078 0)
(0.996909 -0.00907061 0)
(0.996879 -0.00893893 0)
(1.00158 -0.0003335 0)
(1.0016 -0.00117255 0)
(1.00163 -0.00186763 0)
(1.00167 -0.00261967 0)
(1.00172 -0.00334972 0)
(1.00177 -0.0040785 0)
(1.00183 -0.0048108 0)
(1.00189 -0.00554674 0)
(1.00196 -0.0062868 0)
(1.00202 -0.0070307 0)
(1.00208 -0.00777717 0)
(1.00214 -0.00852424 0)
(1.00219 -0.00926942 0)
(1.00223 -0.0100097 0)
(1.00226 -0.0107416 0)
(1.00227 -0.0114614 0)
(1.00228 -0.0121653 0)
(1.00226 -0.0128493 0)
(1.00223 -0.0135093 0)
(1.00218 -0.0141416 0)
(1.00212 -0.0147426 0)
(1.00203 -0.0153089 0)
(1.00193 -0.0158377 0)
(1.00181 -0.0163263 0)
(1.00167 -0.0167728 0)
(1.00152 -0.0171757 0)
(1.00135 -0.0175338 0)
(1.00118 -0.0178466 0)
(1.00098 -0.0181143 0)
(1.00078 -0.018337 0)
(1.00057 -0.0185159 0)
(1.00036 -0.018652 0)
(1.00014 -0.0187471 0)
(0.999911 -0.0188029 0)
(0.999685 -0.0188216 0)
(0.999458 -0.0188054 0)
(0.999232 -0.0187568 0)
(0.999008 -0.0186781 0)
(0.998788 -0.018572 0)
(0.998571 -0.0184412 0)
(0.998359 -0.0182881 0)
(0.998152 -0.0181156 0)
(0.997952 -0.0179259 0)
(0.997757 -0.0177215 0)
(0.997569 -0.0175045 0)
(0.997388 -0.0172768 0)
(0.997213 -0.0170403 0)
(0.997045 -0.0167969 0)
(0.996884 -0.0165481 0)
(0.996729 -0.0162954 0)
(0.996579 -0.0160405 0)
(0.996435 -0.0157847 0)
(0.996298 -0.0155292 0)
(0.996167 -0.0152753 0)
(0.996045 -0.0150239 0)
(0.995931 -0.0147757 0)
(0.995826 -0.0145314 0)
(0.995729 -0.0142914 0)
(0.99564 -0.0140563 0)
(0.995557 -0.0138264 0)
(0.99548 -0.0136023 0)
(0.995408 -0.0133842 0)
(0.99534 -0.0131724 0)
(0.995276 -0.0129671 0)
(0.995216 -0.0127686 0)
(0.995159 -0.0125769 0)
(0.995106 -0.0123921 0)
(0.995056 -0.0122143 0)
(0.995008 -0.0120436 0)
(1.00219 -0.000388773 0)
(1.00221 -0.00136328 0)
(1.00226 -0.00217677 0)
(1.00231 -0.00305648 0)
(1.00238 -0.00391001 0)
(1.00246 -0.00476545 0)
(1.00255 -0.00562716 0)
(1.00265 -0.00649558 0)
(1.00275 -0.00737185 0)
(1.00285 -0.0082559 0)
(1.00294 -0.00914645 0)
(1.00303 -0.0100414 0)
(1.00311 -0.0109381 0)
(1.00318 -0.011833 0)
(1.00323 -0.0127221 0)
(1.00327 -0.0136011 0)
(1.00328 -0.0144652 0)
(1.00328 -0.0153096 0)
(1.00325 -0.0161294 0)
(1.00319 -0.0169198 0)
(1.00311 -0.017676 0)
(1.00301 -0.0183938 0)
(1.00288 -0.0190692 0)
(1.00272 -0.0196986 0)
(1.00254 -0.0202792 0)
(1.00233 -0.0208087 0)
(1.0021 -0.0212851 0)
(1.00185 -0.0217075 0)
(1.00159 -0.0220753 0)
(1.0013 -0.0223885 0)
(1.00101 -0.0226478 0)
(1.0007 -0.0228543 0)
(1.00038 -0.0230095 0)
(1.00006 -0.0231155 0)
(0.999735 -0.0231746 0)
(0.999406 -0.0231893 0)
(0.999078 -0.0231625 0)
(0.99875 -0.0230972 0)
(0.998427 -0.0229965 0)
(0.998107 -0.0228634 0)
(0.997794 -0.0227012 0)
(0.997488 -0.0225127 0)
(0.99719 -0.0223009 0)
(0.996901 -0.0220688 0)
(0.996621 -0.0218192 0)
(0.996351 -0.0215549 0)
(0.996091 -0.0212784 0)
(0.995843 -0.0209923 0)
(0.995606 -0.0206988 0)
(0.995382 -0.0203998 0)
(0.99517 -0.0200972 0)
(0.994971 -0.0197924 0)
(0.994784 -0.0194867 0)
(0.994607 -0.0191813 0)
(0.994438 -0.0188775 0)
(0.994277 -0.0185764 0)
(0.994121 -0.0182791 0)
(0.993972 -0.0179866 0)
(0.993829 -0.0176997 0)
(0.993693 -0.017419 0)
(0.993565 -0.0171452 0)
(0.993444 -0.0168786 0)
(0.99333 -0.0166195 0)
(0.993224 -0.0163683 0)
(0.993125 -0.0161251 0)
(0.993032 -0.01589 0)
(0.992946 -0.0156632 0)
(0.992865 -0.0154447 0)
(0.992789 -0.0152347 0)
(1.00284 -0.0004402 0)
(1.00287 -0.00153907 0)
(1.00293 -0.00246169 0)
(1.003 -0.0034588 0)
(1.0031 -0.00442589 0)
(1.00321 -0.00539812 0)
(1.00334 -0.00637912 0)
(1.00347 -0.00736983 0)
(1.00361 -0.00837211 0)
(1.00375 -0.00938615 0)
(1.00389 -0.0104108 0)
(1.00402 -0.011444 0)
(1.00414 -0.012483 0)
(1.00425 -0.0135239 0)
(1.00433 -0.0145624 0)
(1.0044 -0.0155936 0)
(1.00444 -0.0166121 0)
(1.00445 -0.0176124 0)
(1.00443 -0.0185886 0)
(1.00438 -0.0195351 0)
(1.00429 -0.020446 0)
(1.00417 -0.0213162 0)
(1.00401 -0.0221405 0)
(1.00382 -0.0229145 0)
(1.00359 -0.0236341 0)
(1.00333 -0.0242963 0)
(1.00304 -0.0248982 0)
(1.00271 -0.0254379 0)
(1.00236 -0.0259144 0)
(1.00199 -0.0263271 0)
(1.0016 -0.0266762 0)
(1.00119 -0.0269626 0)
(1.00076 -0.0271877 0)
(1.00033 -0.0273535 0)
(0.999887 -0.0274624 0)
(0.999439 -0.0275172 0)
(0.99899 -0.0275211 0)
(0.998542 -0.0274773 0)
(0.998096 -0.0273893 0)
(0.997656 -0.0272607 0)
(0.997224 -0.0270952 0)
(0.9968 -0.0268964 0)
(0.996387 -0.0266679 0)
(0.995986 -0.0264132 0)
(0.995597 -0.0261357 0)
(0.995221 -0.0258386 0)
(0.994859 -0.0255246 0)
(0.994511 -0.0251967 0)
(0.994177 -0.0248574 0)
(0.993856 -0.0245093 0)
(0.993547 -0.0241549 0)
(0.99325 -0.0237964 0)
(0.992965 -0.0234361 0)
(0.992695 -0.0230759 0)
(0.992439 -0.0227173 0)
(0.9922 -0.0223618 0)
(0.991977 -0.0220103 0)
(0.991769 -0.0216637 0)
(0.991577 -0.0213229 0)
(0.991397 -0.0209885 0)
(0.991228 -0.0206614 0)
(0.99107 -0.0203421 0)
(0.990921 -0.0200312 0)
(0.99078 -0.0197293 0)
(0.990648 -0.0194365 0)
(0.990523 -0.0191533 0)
(0.990406 -0.0188798 0)
(0.990296 -0.0186162 0)
(0.990192 -0.0183627 0)
(1.00353 -0.00048985 0)
(1.00357 -0.00170563 0)
(1.00365 -0.00273007 0)
(1.00374 -0.00383736 0)
(1.00387 -0.00491074 0)
(1.00402 -0.00599214 0)
(1.00418 -0.0070843 0)
(1.00436 -0.00818883 0)
(1.00454 -0.0093083 0)
(1.00473 -0.0104432 0)
(1.00492 -0.0115927 0)
(1.0051 -0.0127548 0)
(1.00526 -0.0139268 0)
(1.00542 -0.0151049 0)
(1.00555 -0.0162843 0)
(1.00565 -0.01746 0)
(1.00572 -0.018626 0)
(1.00576 -0.0197762 0)
(1.00576 -0.0209041 0)
(1.00571 -0.0220031 0)
(1.00563 -0.0230667 0)
(1.00549 -0.0240885 0)
(1.00531 -0.0250626 0)
(1.00509 -0.0259833 0)
(1.00481 -0.0268456 0)
(1.0045 -0.0276453 0)
(1.00414 -0.0283786 0)
(1.00374 -0.0290428 0)
(1.00331 -0.0296359 0)
(1.00284 -0.0301567 0)
(1.00234 -0.0306047 0)
(1.00182 -0.0309804 0)
(1.00127 -0.0312849 0)
(1.00072 -0.0315199 0)
(1.00014 -0.0316876 0)
(0.999563 -0.0317909 0)
(0.998979 -0.031833 0)
(0.998394 -0.0318175 0)
(0.997811 -0.0317482 0)
(0.997234 -0.0316291 0)
(0.996666 -0.0314644 0)
(0.996107 -0.0312581 0)
(0.995561 -0.0310145 0)
(0.99503 -0.0307376 0)
(0.994514 -0.0304315 0)
(0.994014 -0.0301003 0)
(0.993533 -0.0297478 0)
(0.993071 -0.0293776 0)
(0.992628 -0.0289933 0)
(0.992206 -0.0285979 0)
(0.991806 -0.0281941 0)
(0.991429 -0.0277841 0)
(0.991072 -0.0273702 0)
(0.990734 -0.026954 0)
(0.990413 -0.0265376 0)
(0.990105 -0.0261228 0)
(0.989809 -0.0257114 0)
(0.989525 -0.0253051 0)
(0.989255 -0.0249053 0)
(0.988997 -0.0245132 0)
(0.988753 -0.0241296 0)
(0.988524 -0.0237552 0)
(0.988309 -0.0233907 0)
(0.988107 -0.0230364 0)
(0.987918 -0.0226928 0)
(0.987741 -0.0223601 0)
(0.987576 -0.0220386 0)
(0.987422 -0.0217284 0)
(0.987277 -0.0214297 0)
(1.00427 -0.000538426 0)
(1.00431 -0.00186564 0)
(1.0044 -0.00298657 0)
(1.00453 -0.00419874 0)
(1.00468 -0.00537275 0)
(1.00487 -0.00655728 0)
(1.00507 -0.00775404 0)
(1.0053 -0.00896533 0)
(1.00553 -0.0101945 0)
(1.00577 -0.0114424 0)
(1.00601 -0.0127085 0)
(1.00624 -0.0139912 0)
(1.00647 -0.0152879 0)
(1.00667 -0.0165948 0)
(1.00685 -0.0179073 0)
(1.007 -0.0192201 0)
(1.00711 -0.020527 0)
(1.00718 -0.0218215 0)
(1.0072 -0.0230965 0)
(1.00717 -0.0243448 0)
(1.00709 -0.0255591 0)
(1.00695 -0.0267322 0)
(1.00676 -0.0278571 0)
(1.00651 -0.0289272 0)
(1.00619 -0.0299364 0)
(1.00583 -0.0308792 0)
(1.0054 -0.031751 0)
(1.00493 -0.0325479 0)
(1.0044 -0.0332669 0)
(1.00384 -0.0339058 0)
(1.00323 -0.0344635 0)
(1.00259 -0.0349395 0)
(1.00192 -0.0353346 0)
(1.00123 -0.0356498 0)
(1.00052 -0.0358874 0)
(0.999795 -0.03605 0)
(0.999062 -0.036141 0)
(0.998326 -0.036164 0)
(0.997591 -0.0361232 0)
(0.99686 -0.0360231 0)
(0.996138 -0.0358682 0)
(0.995427 -0.0356633 0)
(0.99473 -0.0354131 0)
(0.99405 -0.0351225 0)
(0.993389 -0.0347961 0)
(0.992749 -0.0344382 0)
(0.99213 -0.0340529 0)
(0.991533 -0.0336443 0)
(0.990959 -0.033216 0)
(0.990406 -0.0327716 0)
(0.989874 -0.0323148 0)
(0.989362 -0.0318488 0)
(0.988871 -0.0313772 0)
(0.988401 -0.0309029 0)
(0.987956 -0.0304283 0)
(0.987538 -0.0299556 0)
(0.987148 -0.0294861 0)
(0.986784 -0.0290213 0)
(0.986445 -0.0285624 0)
(0.986127 -0.0281105 0)
(0.985829 -0.0276669 0)
(0.985548 -0.0272327 0)
(0.985284 -0.0268088 0)
(0.985034 -0.026396 0)
(0.984799 -0.0259951 0)
(0.984577 -0.0256064 0)
(0.984368 -0.0252305 0)
(0.984172 -0.0248677 0)
(0.983988 -0.0245181 0)
(1.00503 -0.000585677 0)
(1.00508 -0.00201936 0)
(1.0052 -0.00323262 0)
(1.00534 -0.00454499 0)
(1.00553 -0.00581449 0)
(1.00575 -0.00709678 0)
(1.006 -0.00839228 0)
(1.00627 -0.00970405 0)
(1.00656 -0.0110362 0)
(1.00686 -0.0123899 0)
(1.00715 -0.0137652 0)
(1.00745 -0.015161 0)
(1.00773 -0.0165748 0)
(1.00799 -0.0180032 0)
(1.00822 -0.0194417 0)
(1.00842 -0.0208851 0)
(1.00858 -0.0223271 0)
(1.00869 -0.0237609 0)
(1.00874 -0.0251792 0)
(1.00874 -0.0265744 0)
(1.00868 -0.0279385 0)
(1.00854 -0.0292634 0)
(1.00834 -0.0305414 0)
(1.00807 -0.0317649 0)
(1.00772 -0.0329266 0)
(1.00731 -0.03402 0)
(1.00682 -0.0350392 0)
(1.00628 -0.0359792 0)
(1.00567 -0.0368357 0)
(1.005 -0.0376056 0)
(1.00429 -0.0382865 0)
(1.00353 -0.0388773 0)
(1.00273 -0.0393777 0)
(1.00189 -0.0397885 0)
(1.00103 -0.0401112 0)
(1.00015 -0.0403482 0)
(0.999261 -0.0405026 0)
(0.99836 -0.0405781 0)
(0.997457 -0.0405787 0)
(0.996557 -0.0405092 0)
(0.995664 -0.0403744 0)
(0.994783 -0.0401793 0)
(0.993917 -0.0399292 0)
(0.993071 -0.0396292 0)
(0.992246 -0.0392848 0)
(0.991444 -0.0389011 0)
(0.990669 -0.0384833 0)
(0.989921 -0.0380367 0)
(0.989203 -0.0375659 0)
(0.988517 -0.0370756 0)
(0.987863 -0.0365697 0)
(0.987245 -0.0360516 0)
(0.986659 -0.0355241 0)
(0.986105 -0.0349901 0)
(0.985577 -0.0344521 0)
(0.985071 -0.0339131 0)
(0.984584 -0.033376 0)
(0.984117 -0.0328433 0)
(0.983669 -0.0323174 0)
(0.983244 -0.0318 0)
(0.982842 -0.0312925 0)
(0.982463 -0.0307961 0)
(0.982107 -0.0303115 0)
(0.981773 -0.0298395 0)
(0.981461 -0.0293807 0)
(0.981168 -0.0289357 0)
(0.980895 -0.0285048 0)
(0.980638 -0.0280884 0)
(0.980399 -0.0276869 0)
(1.00581 -0.000631133 0)
(1.00587 -0.00216596 0)
(1.006 -0.00346758 0)
(1.00618 -0.00487527 0)
(1.0064 -0.006235 0)
(1.00666 -0.0076097 0)
(1.00695 -0.00899817 0)
(1.00728 -0.0104043 0)
(1.00762 -0.0118329 0)
(1.00797 -0.0132857 0)
(1.00833 -0.0147633 0)
(1.00868 -0.0162649 0)
(1.00902 -0.0177888 0)
(1.00935 -0.0193317 0)
(1.00964 -0.0208897 0)
(1.0099 -0.0224575 0)
(1.01011 -0.0240293 0)
(1.01027 -0.0255982 0)
(1.01037 -0.0271567 0)
(1.0104 -0.0286969 0)
(1.01036 -0.0302104 0)
(1.01024 -0.0316887 0)
(1.01004 -0.033123 0)
(1.00976 -0.034505 0)
(1.00939 -0.0358263 0)
(1.00894 -0.0370793 0)
(1.0084 -0.0382568 0)
(1.00779 -0.0393524 0)
(1.0071 -0.0403607 0)
(1.00634 -0.0412773 0)
(1.00551 -0.0420985 0)
(1.00463 -0.0428221 0)
(1.0037 -0.0434468 0)
(1.00272 -0.0439723 0)
(1.0017 -0.0443995 0)
(1.00066 -0.0447301 0)
(0.999597 -0.0449667 0)
(0.99852 -0.0451129 0)
(0.997435 -0.0451728 0)
(0.996351 -0.0451512 0)
(0.995272 -0.0450531 0)
(0.994204 -0.0448842 0)
(0.993152 -0.0446503 0)
(0.992121 -0.0443572 0)
(0.991113 -0.0440108 0)
(0.990134 -0.0436169 0)
(0.989184 -0.0431811 0)
(0.988265 -0.0427084 0)
(0.987379 -0.0422039 0)
(0.986525 -0.0416724 0)
(0.985701 -0.0411186 0)
(0.984906 -0.0405475 0)
(0.98414 -0.0399638 0)
(0.983406 -0.0393721 0)
(0.982709 -0.0387762 0)
(0.982053 -0.038179 0)
(0.981439 -0.0375827 0)
(0.980867 -0.0369892 0)
(0.980333 -0.0364004 0)
(0.979833 -0.035818 0)
(0.979362 -0.035244 0)
(0.978917 -0.0346801 0)
(0.978498 -0.0341279 0)
(0.978101 -0.0335887 0)
(0.977727 -0.0330637 0)
(0.977375 -0.0325538 0)
(0.977043 -0.0320596 0)
(0.976731 -0.0315817 0)
(0.976438 -0.0311207 0)
(1.0066 -0.000674412 0)
(1.00668 -0.00230447 0)
(1.00682 -0.00368997 0)
(1.00702 -0.00518758 0)
(1.00728 -0.00663198 0)
(1.00758 -0.00809342 0)
(1.00792 -0.00956885 0)
(1.00829 -0.011063 0)
(1.00869 -0.0125816 0)
(1.0091 -0.0141267 0)
(1.00952 -0.0156995 0)
(1.00994 -0.0173001 0)
(1.01035 -0.018927 0)
(1.01074 -0.0205777 0)
(1.0111 -0.0222486 0)
(1.01142 -0.023935 0)
(1.01169 -0.0256314 0)
(1.01191 -0.027331 0)
(1.01206 -0.0290265 0)
(1.01214 -0.03071 0)
(1.01213 -0.0323727 0)
(1.01203 -0.0340058 0)
(1.01185 -0.0355999 0)
(1.01157 -0.0371458 0)
(1.01119 -0.0386344 0)
(1.01071 -0.0400567 0)
(1.01013 -0.0414044 0)
(1.00946 -0.0426699 0)
(1.0087 -0.0438461 0)
(1.00785 -0.0449271 0)
(1.00692 -0.0459081 0)
(1.00592 -0.0467852 0)
(1.00485 -0.0475557 0)
(1.00373 -0.0482183 0)
(1.00255 -0.0487726 0)
(1.00134 -0.0492197 0)
(1.0001 -0.0495613 0)
(0.998836 -0.0498004 0)
(0.997559 -0.0499408 0)
(0.996277 -0.0499868 0)
(0.994997 -0.0499437 0)
(0.993726 -0.0498169 0)
(0.992471 -0.0496123 0)
(0.991237 -0.0493361 0)
(0.990028 -0.0489947 0)
(0.988849 -0.0485945 0)
(0.987703 -0.0481422 0)
(0.986594 -0.0476445 0)
(0.985524 -0.0471079 0)
(0.984497 -0.0465388 0)
(0.983516 -0.0459429 0)
(0.982585 -0.045325 0)
(0.981703 -0.0446894 0)
(0.980867 -0.0440397 0)
(0.980071 -0.0433796 0)
(0.979306 -0.0427131 0)
(0.97857 -0.0420445 0)
(0.97786 -0.0413778 0)
(0.977179 -0.0407165 0)
(0.976532 -0.0400633 0)
(0.975919 -0.0394203 0)
(0.975342 -0.0387891 0)
(0.9748 -0.038171 0)
(0.974292 -0.0375671 0)
(0.973816 -0.0369786 0)
(0.97337 -0.0364061 0)
(0.972952 -0.0358506 0)
(0.972561 -0.0353126 0)
(0.972195 -0.0347929 0)
(1.0074 -0.000715228 0)
(1.00749 -0.00243401 0)
(1.00765 -0.00389827 0)
(1.00787 -0.00547985 0)
(1.00816 -0.00700293 0)
(1.0085 -0.00854507 0)
(1.00889 -0.0101011 0)
(1.00931 -0.0116769 0)
(1.00976 -0.0132786 0)
(1.01023 -0.014909 0)
(1.01072 -0.01657 0)
(1.01121 -0.0182623 0)
(1.01168 -0.019985 0)
(1.01215 -0.0217365 0)
(1.01258 -0.0235136 0)
(1.01297 -0.0253124 0)
(1.01331 -0.0271276 0)
(1.01359 -0.0289532 0)
(1.0138 -0.030782 0)
(1.01393 -0.0326063 0)
(1.01397 -0.0344174 0)
(1.01391 -0.0362061 0)
(1.01376 -0.0379628 0)
(1.01349 -0.0396777 0)
(1.01311 -0.0413406 0)
(1.01262 -0.0429418 0)
(1.01201 -0.0444716 0)
(1.0113 -0.0459211 0)
(1.01047 -0.0472816 0)
(1.00954 -0.0485458 0)
(1.00852 -0.0497069 0)
(1.00741 -0.0507596 0)
(1.00621 -0.0516996 0)
(1.00494 -0.052524 0)
(1.00361 -0.0532311 0)
(1.00223 -0.0538205 0)
(1.0008 -0.0542931 0)
(0.999343 -0.054651 0)
(0.997864 -0.0548972 0)
(0.996372 -0.0550359 0)
(0.994878 -0.0550721 0)
(0.993389 -0.0550117 0)
(0.991913 -0.0548609 0)
(0.990457 -0.0546266 0)
(0.989027 -0.054316 0)
(0.98763 -0.053936 0)
(0.986269 -0.0534937 0)
(0.984948 -0.0529958 0)
(0.98367 -0.0524486 0)
(0.982434 -0.0518581 0)
(0.98124 -0.0512304 0)
(0.980085 -0.0505716 0)
(0.978968 -0.0498885 0)
(0.977894 -0.0491873 0)
(0.97687 -0.0484739 0)
(0.975905 -0.0477528 0)
(0.975002 -0.0470273 0)
(0.97416 -0.0463002 0)
(0.973373 -0.045574 0)
(0.972635 -0.0448516 0)
(0.97194 -0.0441358 0)
(0.971282 -0.0434295 0)
(0.97066 -0.0427352 0)
(0.970071 -0.042055 0)
(0.969515 -0.0413907 0)
(0.968991 -0.0407438 0)
(0.968497 -0.0401152 0)
(0.968033 -0.0395062 0)
(0.967596 -0.0389174 0)
(1.0082 -0.000753352 0)
(1.00829 -0.00255386 0)
(1.00848 -0.00409119 0)
(1.00873 -0.00575032 0)
(1.00905 -0.00734575 0)
(1.00943 -0.00896218 0)
(1.00986 -0.0105922 0)
(1.01033 -0.0122427 0)
(1.01084 -0.0139205 0)
(1.01137 -0.0156291 0)
(1.01192 -0.017371 0)
(1.01248 -0.0191474 0)
(1.01303 -0.0209586 0)
(1.01356 -0.0228033 0)
(1.01407 -0.0246794 0)
(1.01454 -0.0265836 0)
(1.01495 -0.0285114 0)
(1.01531 -0.0304573 0)
(1.01558 -0.0324148 0)
(1.01578 -0.0343763 0)
(1.01588 -0.0363336 0)
(1.01587 -0.0382775 0)
(1.01575 -0.0401982 0)
(1.01551 -0.0420855 0)
(1.01515 -0.0439286 0)
(1.01466 -0.0457168 0)
(1.01404 -0.0474395 0)
(1.01329 -0.0490861 0)
(1.01242 -0.0506468 0)
(1.01143 -0.0521124 0)
(1.01032 -0.0534743 0)
(1.0091 -0.0547254 0)
(1.00779 -0.0558596 0)
(1.00638 -0.056872 0)
(1.00489 -0.0577593 0)
(1.00334 -0.0585194 0)
(1.00173 -0.0591517 0)
(1.00007 -0.0596571 0)
(0.998386 -0.0600377 0)
(0.996676 -0.0602968 0)
(0.994955 -0.0604386 0)
(0.993233 -0.0604684 0)
(0.991521 -0.0603921 0)
(0.989827 -0.0602162 0)
(0.988158 -0.0599476 0)
(0.986521 -0.0595938 0)
(0.984923 -0.0591626 0)
(0.983369 -0.0586621 0)
(0.981863 -0.0581008 0)
(0.98041 -0.0574873 0)
(0.979017 -0.0568296 0)
(0.977688 -0.056135 0)
(0.976428 -0.0554096 0)
(0.975233 -0.0546585 0)
(0.974093 -0.0538865 0)
(0.972998 -0.053099 0)
(0.97194 -0.0523016 0)
(0.970917 -0.0515004 0)
(0.969935 -0.0507003 0)
(0.968999 -0.0499055 0)
(0.968114 -0.049119 0)
(0.96728 -0.0483432 0)
(0.966497 -0.0475801 0)
(0.965763 -0.0468315 0)
(0.965075 -0.0460992 0)
(0.964431 -0.0453846 0)
(0.963827 -0.0446889 0)
(0.963261 -0.0440134 0)
(0.962731 -0.0433591 0)
(1.009 -0.00078861 0)
(1.0091 -0.00266353 0)
(1.0093 -0.00426783 0)
(1.00957 -0.00599778 0)
(1.00992 -0.00765899 0)
(1.01034 -0.00934303 0)
(1.01082 -0.0110403 0)
(1.01134 -0.0127584 0)
(1.0119 -0.0145052 0)
(1.0125 -0.0162845 0)
(1.01311 -0.0180995 0)
(1.01374 -0.0199525 0)
(1.01436 -0.0218442 0)
(1.01497 -0.0237744 0)
(1.01556 -0.0257418 0)
(1.01611 -0.0277439 0)
(1.0166 -0.029777 0)
(1.01704 -0.0318366 0)
(1.01739 -0.0339168 0)
(1.01766 -0.0360107 0)
(1.01783 -0.0381106 0)
(1.01788 -0.0402074 0)
(1.01782 -0.0422916 0)
(1.01762 -0.0443527 0)
(1.01729 -0.0463797 0)
(1.01682 -0.0483611 0)
(1.01621 -0.0502853 0)
(1.01545 -0.0521407 0)
(1.01455 -0.0539158 0)
(1.01351 -0.0555998 0)
(1.01233 -0.0571824 0)
(1.01102 -0.0586544 0)
(1.0096 -0.0600074 0)
(1.00806 -0.0612347 0)
(1.00643 -0.0623306 0)
(1.00471 -0.0632913 0)
(1.00292 -0.0641143 0)
(1.00106 -0.0647988 0)
(0.999161 -0.0653453 0)
(0.997225 -0.0657561 0)
(0.995268 -0.0660347 0)
(0.993301 -0.0661859 0)
(0.991337 -0.0662157 0)
(0.989386 -0.066131 0)
(0.987458 -0.0659398 0)
(0.985561 -0.0656503 0)
(0.983704 -0.065271 0)
(0.981893 -0.0648102 0)
(0.980133 -0.0642758 0)
(0.978426 -0.0636751 0)
(0.976771 -0.0630154 0)
(0.975168 -0.0623041 0)
(0.973613 -0.0615491 0)
(0.972111 -0.0607591 0)
(0.970674 -0.0599426 0)
(0.969314 -0.0591066 0)
(0.968041 -0.0582565 0)
(0.966853 -0.0573963 0)
(0.965743 -0.05653 0)
(0.9647 -0.0556618 0)
(0.963715 -0.0547959 0)
(0.962782 -0.0539367 0)
(0.961897 -0.0530879 0)
(0.96106 -0.0522528 0)
(0.960268 -0.0514342 0)
(0.959521 -0.0506343 0)
(0.958817 -0.0498549 0)
(0.958155 -0.0490976 0)
(0.957533 -0.0483636 0)
(1.00978 -0.000820899 0)
(1.00989 -0.00276282 0)
(1.01011 -0.00442782 0)
(1.01041 -0.00622176 0)
(1.01079 -0.00794209 0)
(1.01125 -0.009687 0)
(1.01176 -0.0114445 0)
(1.01234 -0.0132233 0)
(1.01296 -0.0150317 0)
(1.01361 -0.0168742 0)
(1.01429 -0.0187548 0)
(1.01499 -0.0206764 0)
(1.01569 -0.0226407 0)
(1.01638 -0.0246482 0)
(1.01704 -0.0266986 0)
(1.01768 -0.0287904 0)
(1.01826 -0.030921 0)
(1.01878 -0.0330867 0)
(1.01922 -0.0352825 0)
(1.01957 -0.0375025 0)
(1.01982 -0.0397394 0)
(1.01995 -0.0419851 0)
(1.01995 -0.0442302 0)
(1.01981 -0.0464643 0)
(1.01953 -0.0486765 0)
(1.0191 -0.0508547 0)
(1.01851 -0.0529867 0)
(1.01776 -0.0550599 0)
(1.01684 -0.0570615 0)
(1.01577 -0.058979 0)
(1.01455 -0.0608003 0)
(1.01317 -0.0625141 0)
(1.01165 -0.0641099 0)
(1.01 -0.0655784 0)
(1.00824 -0.0669119 0)
(1.00636 -0.068104 0)
(1.00439 -0.06915 0)
(1.00234 -0.0700468 0)
(1.00022 -0.0707934 0)
(0.998057 -0.0713901 0)
(0.995857 -0.071839 0)
(0.993636 -0.0721436 0)
(0.991408 -0.0723087 0)
(0.989186 -0.0723401 0)
(0.986983 -0.0722446 0)
(0.984808 -0.0720297 0)
(0.982671 -0.0717034 0)
(0.980582 -0.071275 0)
(0.978546 -0.0707543 0)
(0.976572 -0.0701522 0)
(0.974669 -0.0694798 0)
(0.972844 -0.0687476 0)
(0.971107 -0.067965 0)
(0.969456 -0.0671395 0)
(0.967882 -0.0662775 0)
(0.966368 -0.0653855 0)
(0.964903 -0.0644708 0)
(0.963485 -0.0635413 0)
(0.962119 -0.0626044 0)
(0.960816 -0.0616659 0)
(0.959583 -0.0607305 0)
(0.958421 -0.0598017 0)
(0.957331 -0.0588828 0)
(0.956308 -0.0579767 0)
(0.955349 -0.0570859 0)
(0.954451 -0.0562129 0)
(0.953608 -0.0553599 0)
(0.952818 -0.0545288 0)
(0.952078 -0.0537214 0)
(1.01056 -0.000850206 0)
(1.01068 -0.00285184 0)
(1.01091 -0.00457135 0)
(1.01123 -0.00642256 0)
(1.01164 -0.00819547 0)
(1.01213 -0.0099946 0)
(1.01269 -0.0118056 0)
(1.01332 -0.0136381 0)
(1.01399 -0.015501 0)
(1.0147 -0.0173994 0)
(1.01545 -0.019338 0)
(1.01622 -0.0213203 0)
(1.01699 -0.023349 0)
(1.01776 -0.0254255 0)
(1.01851 -0.0275505 0)
(1.01923 -0.0297235 0)
(1.0199 -0.0319429 0)
(1.02051 -0.0342062 0)
(1.02104 -0.0365095 0)
(1.02149 -0.0388478 0)
(1.02182 -0.0412149 0)
(1.02204 -0.0436033 0)
(1.02213 -0.0460045 0)
(1.02207 -0.0484086 0)
(1.02185 -0.0508045 0)
(1.02147 -0.0531805 0)
(1.02093 -0.0555237 0)
(1.0202 -0.0578207 0)
(1.0193 -0.0600579 0)
(1.01822 -0.0622212 0)
(1.01697 -0.0642968 0)
(1.01554 -0.0662713 0)
(1.01396 -0.068132 0)
(1.01221 -0.0698671 0)
(1.01032 -0.0714664 0)
(1.0083 -0.0729206 0)
(1.00617 -0.0742225 0)
(1.00393 -0.0753665 0)
(1.0016 -0.076349 0)
(0.999208 -0.0771683 0)
(0.996761 -0.0778246 0)
(0.994278 -0.0783199 0)
(0.991775 -0.0786581 0)
(0.989267 -0.0788449 0)
(0.986769 -0.0788876 0)
(0.984293 -0.0787947 0)
(0.981852 -0.0785757 0)
(0.979456 -0.0782407 0)
(0.977114 -0.0777992 0)
(0.974834 -0.0772604 0)
(0.972617 -0.0766326 0)
(0.970463 -0.0759239 0)
(0.968371 -0.0751432 0)
(0.966342 -0.0743009 0)
(0.96439 -0.0734084 0)
(0.962534 -0.0724767 0)
(0.96079 -0.0715144 0)
(0.959162 -0.0705282 0)
(0.957639 -0.069524 0)
(0.956206 -0.0685077 0)
(0.95485 -0.0674856 0)
(0.953564 -0.066464 0)
(0.952344 -0.0654486 0)
(0.951187 -0.0644442 0)
(0.950094 -0.0634549 0)
(0.949062 -0.0624842 0)
(0.94809 -0.0615348 0)
(0.947176 -0.0606093 0)
(0.946317 -0.0597097 0)
(1.01131 -0.00087661 0)
(1.01144 -0.00293098 0)
(1.01169 -0.00469908 0)
(1.01203 -0.00660112 0)
(1.01247 -0.00842038 0)
(1.013 -0.0102674 0)
(1.0136 -0.0121253 0)
(1.01427 -0.0140049 0)
(1.015 -0.0159155 0)
(1.01577 -0.0178626 0)
(1.01658 -0.0198518 0)
(1.01741 -0.0218873 0)
(1.01826 -0.0239724 0)
(1.01911 -0.0261096 0)
(1.01995 -0.0283006 0)
(1.02076 -0.0305459 0)
(1.02152 -0.0328452 0)
(1.02223 -0.035197 0)
(1.02286 -0.0375986 0)
(1.0234 -0.0400464 0)
(1.02384 -0.0425353 0)
(1.02415 -0.0450588 0)
(1.02433 -0.0476093 0)
(1.02436 -0.0501776 0)
(1.02423 -0.0527534 0)
(1.02393 -0.055325 0)
(1.02345 -0.0578796 0)
(1.02277 -0.0604034 0)
(1.02191 -0.0628819 0)
(1.02085 -0.0652999 0)
(1.01959 -0.0676423 0)
(1.01814 -0.0698935 0)
(1.0165 -0.0720389 0)
(1.01468 -0.074064 0)
(1.0127 -0.0759556 0)
(1.01055 -0.077702 0)
(1.00827 -0.0792927 0)
(1.00585 -0.0807193 0)
(1.00333 -0.0819751 0)
(1.00071 -0.0830559 0)
(0.998015 -0.0839592 0)
(0.995267 -0.0846849 0)
(0.992483 -0.0852348 0)
(0.989679 -0.0856125 0)
(0.986874 -0.0858229 0)
(0.984083 -0.0858724 0)
(0.981321 -0.0857684 0)
(0.978602 -0.0855196 0)
(0.975937 -0.0851362 0)
(0.973337 -0.0846303 0)
(0.970812 -0.0840156 0)
(0.968377 -0.0833066 0)
(0.966045 -0.0825173 0)
(0.963821 -0.0816596 0)
(0.961699 -0.0807426 0)
(0.95966 -0.0797739 0)
(0.957687 -0.0787624 0)
(0.955773 -0.077718 0)
(0.953926 -0.0766507 0)
(0.95216 -0.0755694 0)
(0.950488 -0.074481 0)
(0.948912 -0.0733909 0)
(0.947432 -0.0723042 0)
(0.946044 -0.0712253 0)
(0.944741 -0.0701584 0)
(0.94352 -0.0691073 0)
(0.942375 -0.0680755 0)
(0.941301 -0.0670662 0)
(0.940295 -0.0660822 0)
(1.01205 -0.000900264 0)
(1.01218 -0.00300087 0)
(1.01245 -0.00481201 0)
(1.01281 -0.00675887 0)
(1.01328 -0.00861864 0)
(1.01384 -0.0105075 0)
(1.01448 -0.0124065 0)
(1.0152 -0.0143269 0)
(1.01597 -0.0162786 0)
(1.0168 -0.0182679 0)
(1.01768 -0.0203006 0)
(1.01858 -0.0223818 0)
(1.0195 -0.0245157 0)