/*--------------------------------*- C++ -*----------------------------------*\
  =========                 |
  \\      /  F ield         | OpenFOAM: The Open Source CFD Toolbox
   \\    /   O peration     | Website:  https://openfoam.org
    \\  /    A nd           | Version:  10
     \\/     M anipulation  |
\*---------------------------------------------------------------------------*/
FoamFile
{
    format      ascii;
    class       volVectorField;
    location    "230";
    object      U;
}
// * * * * * * * * * * * * * * * * * * * * * * * * * * * * * * * * * * * * * //

dimensions      [0 1 -1 0 0 0 0];

internalField   nonuniform List<vector> 
66268
(
(1 -3.73755e-05 0)
(1 -0.000136844 0)
(1 -0.000217949 0)
(1 -0.000302804 0)
(1 -0.000385522 0)
(1 -0.000466588 0)
(1 -0.000546556 0)
(1 -0.000625483 0)
(1 -0.000703293 0)
(1 -0.000779889 0)
(1 -0.000855109 0)
(1 -0.000928735 0)
(1 -0.00100051 0)
(1 -0.00107014 0)
(1 -0.0011373 0)
(1 -0.00120167 0)
(1 -0.00126293 0)
(1 -0.00132074 0)
(0.999999 -0.0013748 0)
(0.999999 -0.00142483 0)
(0.999999 -0.00147059 0)
(0.999999 -0.00151187 0)
(0.999999 -0.00154851 0)
(0.999999 -0.0015804 0)
(0.999999 -0.00160747 0)
(0.999999 -0.00162971 0)
(0.999999 -0.00164715 0)
(0.999998 -0.00165986 0)
(0.999998 -0.00166798 0)
(0.999998 -0.00167165 0)
(0.999998 -0.00167108 0)
(0.999998 -0.00166648 0)
(0.999998 -0.00165809 0)
(0.999998 -0.0016462 0)
(0.999998 -0.00163109 0)
(0.999998 -0.00161307 0)
(0.999998 -0.00159246 0)
(0.999997 -0.00156958 0)
(0.999997 -0.00154472 0)
(0.999997 -0.00151815 0)
(0.999997 -0.00149013 0)
(0.999996 -0.00146084 0)
(0.999996 -0.00143044 0)
(0.999995 -0.00139909 0)
(0.999994 -0.00136691 0)
(0.999993 -0.00133401 0)
(0.999992 -0.00130052 0)
(0.999989 -0.00126654 0)
(0.999985 -0.00123219 0)
(0.99998 -0.00119761 0)
(0.999974 -0.00116295 0)
(0.999967 -0.00112839 0)
(0.999961 -0.00109413 0)
(0.999957 -0.00106037 0)
(0.999954 -0.00102728 0)
(0.999954 -0.000994987 0)
(0.999955 -0.000963611 0)
(0.999958 -0.000933224 0)
(0.999962 -0.000903875 0)
(0.999967 -0.000875591 0)
(0.999971 -0.000848386 0)
(0.999975 -0.000822262 0)
(0.999979 -0.00079721 0)
(0.999982 -0.000773219 0)
(0.999985 -0.00075027 0)
(0.999987 -0.000728337 0)
(0.999988 -0.000707395 0)
(0.99999 -0.000687447 0)
(0.999991 -0.000668499 0)
(1.00016 -0.000111894 0)
(1.00016 -0.000403319 0)
(1.00016 -0.000640537 0)
(1.00017 -0.000891989 0)
(1.00017 -0.00113662 0)
(1.00017 -0.00137682 0)
(1.00018 -0.00161466 0)
(1.00018 -0.00185015 0)
(1.00018 -0.00208317 0)
(1.00019 -0.00231347 0)
(1.00019 -0.00254061 0)
(1.00019 -0.00276398 0)
(1.0002 -0.0029828 0)
(1.0002 -0.00319621 0)
(1.0002 -0.00340325 0)
(1.0002 -0.00360293 0)
(1.00019 -0.00379421 0)
(1.00019 -0.00397608 0)
(1.00018 -0.00414758 0)
(1.00018 -0.0043078 0)
(1.00017 -0.00445594 0)
(1.00015 -0.00459129 0)
(1.00014 -0.00471327 0)
(1.00013 -0.00482147 0)
(1.00011 -0.00491559 0)
(1.00009 -0.0049955 0)
(1.00008 -0.0050612 0)
(1.00006 -0.00511284 0)
(1.00004 -0.00515071 0)
(1.00001 -0.00517525 0)
(0.99999 -0.00518698 0)
(0.999967 -0.00518653 0)
(0.999943 -0.00517459 0)
(0.999919 -0.00515188 0)
(0.999895 -0.00511914 0)
(0.999871 -0.00507714 0)
(0.999847 -0.00502662 0)
(0.999824 -0.00496831 0)
(0.999801 -0.00490295 0)
(0.999778 -0.00483128 0)
(0.999755 -0.00475409 0)
(0.999733 -0.0046722 0)
(0.999712 -0.00458644 0)
(0.999691 -0.00449763 0)
(0.99967 -0.00440656 0)
(0.99965 -0.00431396 0)
(0.999631 -0.00422047 0)
(0.999612 -0.00412667 0)
(0.999595 -0.00403304 0)
(0.99958 -0.00394 0)
(0.999566 -0.00384787 0)
(0.999554 -0.0037569 0)
(0.999543 -0.00366725 0)
(0.999531 -0.00357903 0)
(0.99952 -0.00349234 0)
(0.999508 -0.00340726 0)
(0.999494 -0.00332387 0)
(0.999481 -0.00324227 0)
(0.999467 -0.00316255 0)
(0.999454 -0.0030848 0)
(0.999441 -0.0030091 0)
(0.999429 -0.00293553 0)
(0.999418 -0.00286415 0)
(0.999408 -0.002795 0)
(0.999398 -0.00272813 0)
(0.99939 -0.00266356 0)
(0.999383 -0.00260131 0)
(0.999376 -0.0025414 0)
(0.999369 -0.00248391 0)
(1.00049 -0.000186868 0)
(1.00049 -0.000664021 0)
(1.0005 -0.00105259 0)
(1.00051 -0.00146926 0)
(1.00052 -0.00187317 0)
(1.00053 -0.00227068 0)
(1.00054 -0.00266549 0)
(1.00056 -0.00305744 0)
(1.00057 -0.0034465 0)
(1.00058 -0.00383239 0)
(1.0006 -0.00421446 0)
(1.00061 -0.00459177 0)
(1.00062 -0.00496311 0)
(1.00062 -0.00532707 0)
(1.00062 -0.00568209 0)
(1.00062 -0.0060265 0)
(1.00062 -0.00635856 0)
(1.00061 -0.00667653 0)
(1.00059 -0.00697873 0)
(1.00057 -0.00726355 0)
(1.00055 -0.00752952 0)
(1.00052 -0.00777533 0)
(1.00048 -0.00799988 0)
(1.00044 -0.00820228 0)
(1.0004 -0.00838188 0)
(1.00035 -0.00853829 0)
(1.00029 -0.00867134 0)
(1.00024 -0.0087811 0)
(1.00017 -0.0088679 0)
(1.00011 -0.00893227 0)
(1.00004 -0.00897492 0)
(0.999976 -0.00899672 0)
(0.999907 -0.00899866 0)
(0.999837 -0.00898181 0)
(0.999766 -0.00894737 0)
(0.999696 -0.00889663 0)
(0.999626 -0.00883096 0)
(0.999557 -0.0087518 0)
(0.999488 -0.0086606 0)
(0.999421 -0.0085588 0)
(0.999355 -0.00844778 0)
(0.999291 -0.00832877 0)
(0.999229 -0.0082029 0)
(0.999168 -0.00807117 0)
(0.99911 -0.00793446 0)
(0.999054 -0.00779363 0)
(0.998999 -0.00764946 0)
(0.998947 -0.0075027 0)
(0.998896 -0.0073541 0)
(0.998847 -0.00720438 0)
(0.9988 -0.00705423 0)
(0.998755 -0.00690433 0)
(0.998712 -0.00675532 0)
(0.998673 -0.0066078 0)
(0.998636 -0.00646231 0)
(0.998603 -0.0063193 0)
(0.998574 -0.00617917 0)
(0.998548 -0.00604222 0)
(0.998524 -0.00590871 0)
(0.998503 -0.00577885 0)
(0.998483 -0.00565278 0)
(0.998464 -0.00553064 0)
(0.998447 -0.0054125 0)
(0.99843 -0.00529845 0)
(0.998414 -0.0051885 0)
(0.998399 -0.00508268 0)
(0.998385 -0.00498097 0)
(0.998371 -0.00488339 0)
(0.998358 -0.00478993 0)
(1.00094 -0.000259705 0)
(1.00095 -0.000914279 0)
(1.00097 -0.00144984 0)
(1.00098 -0.00202734 0)
(1.001 -0.0025852 0)
(1.00103 -0.0031358 0)
(1.00106 -0.00368382 0)
(1.00108 -0.00422904 0)
(1.00111 -0.00477166 0)
(1.00114 -0.00531152 0)
(1.00117 -0.00584787 0)
(1.00119 -0.00637952 0)
(1.00121 -0.00690494 0)
(1.00122 -0.00742227 0)
(1.00123 -0.00792941 0)
(1.00123 -0.00842407 0)
(1.00123 -0.00890384 0)
(1.00121 -0.00936627 0)
(1.00119 -0.00980891 0)
(1.00115 -0.0102294 0)
(1.00111 -0.0106256 0)
(1.00106 -0.0109953 0)
(1.00099 -0.011337 0)
(1.00092 -0.0116491 0)
(1.00084 -0.0119303 0)
(1.00074 -0.01218 0)
(1.00064 -0.0123976 0)
(1.00054 -0.0125829 0)
(1.00042 -0.0127362 0)
(1.0003 -0.0128578 0)
(1.00018 -0.0129485 0)
(1.00005 -0.0130094 0)
(0.999919 -0.0130418 0)
(0.999786 -0.013047 0)
(0.999652 -0.0130267 0)
(0.999518 -0.0129825 0)
(0.999384 -0.0129163 0)
(0.999252 -0.0128298 0)
(0.999122 -0.0127247 0)
(0.998994 -0.0126028 0)
(0.99887 -0.0124657 0)
(0.998748 -0.0123151 0)
(0.998631 -0.0121528 0)
(0.998517 -0.0119804 0)
(0.998408 -0.0117997 0)
(0.998303 -0.0116123 0)
(0.998202 -0.0114197 0)
(0.998105 -0.0112235 0)
(0.998013 -0.0110248 0)
(0.997926 -0.0108249 0)
(0.997845 -0.0106248 0)
(0.997768 -0.0104253 0)
(0.997696 -0.0102271 0)
(0.997627 -0.0100307 0)
(0.997562 -0.00983684 0)
(0.997499 -0.00964583 0)
(0.997438 -0.00945814 0)
(0.99738 -0.00927415 0)
(0.997324 -0.00909421 0)
(0.99727 -0.00891863 0)
(0.99722 -0.00874767 0)
(0.997173 -0.00858152 0)
(0.997128 -0.00842036 0)
(0.997087 -0.00826431 0)
(0.997048 -0.00811347 0)
(0.997012 -0.0079679 0)
(0.996978 -0.00782763 0)
(0.996947 -0.00769271 0)
(0.996918 -0.00756318 0)
(1.00148 -0.000327148 0)
(1.00149 -0.00114627 0)
(1.00152 -0.00182145 0)
(1.00155 -0.00254976 0)
(1.00158 -0.00325129 0)
(1.00162 -0.00394571 0)
(1.00167 -0.00463779 0)
(1.00171 -0.00532735 0)
(1.00176 -0.00601505 0)
(1.00181 -0.00670093 0)
(1.00185 -0.00738422 0)
(1.0019 -0.00806363 0)
(1.00193 -0.00873742 0)
(1.00196 -0.00940342 0)
(1.00198 -0.0100591 0)
(1.00199 -0.0107016 0)
(1.00198 -0.011328 0)
(1.00197 -0.0119352 0)
(1.00194 -0.0125199 0)
(1.00189 -0.0130791 0)
(1.00183 -0.0136098 0)
(1.00175 -0.0141093 0)
(1.00166 -0.014575 0)
(1.00155 -0.0150048 0)
(1.00142 -0.0153969 0)
(1.00128 -0.0157498 0)
(1.00113 -0.0160627 0)
(1.00097 -0.0163349 0)
(1.00079 -0.0165664 0)
(1.0006 -0.0167575 0)
(1.00041 -0.0169088 0)
(1.00021 -0.0170213 0)
(1 -0.0170965 0)
(0.999795 -0.0171359 0)
(0.999584 -0.0171412 0)
(0.999371 -0.0171145 0)
(0.999159 -0.0170578 0)
(0.998948 -0.0169734 0)
(0.998739 -0.0168635 0)
(0.998534 -0.0167307 0)
(0.998332 -0.0165774 0)
(0.998135 -0.0164059 0)
(0.997944 -0.0162187 0)
(0.997757 -0.0160178 0)
(0.997577 -0.0158053 0)
(0.997402 -0.0155829 0)
(0.997234 -0.0153525 0)
(0.997072 -0.0151155 0)
(0.996917 -0.0148736 0)
(0.996768 -0.0146281 0)
(0.996625 -0.0143804 0)
(0.996488 -0.0141317 0)
(0.996358 -0.0138832 0)
(0.996234 -0.0136358 0)
(0.996118 -0.0133907 0)
(0.996008 -0.0131486 0)
(0.995906 -0.0129102 0)
(0.995811 -0.0126761 0)
(0.995722 -0.0124469 0)
(0.995639 -0.0122229 0)
(0.995561 -0.0120046 0)
(0.995488 -0.0117921 0)
(0.99542 -0.0115859 0)
(0.995356 -0.0113861 0)
(0.995295 -0.0111928 0)
(0.995238 -0.0110061 0)
(0.995185 -0.0108262 0)
(0.995134 -0.0106531 0)
(0.995087 -0.0104868 0)
(1.00208 -0.000388668 0)
(1.0021 -0.00135811 0)
(1.00214 -0.00216306 0)
(1.00218 -0.00302964 0)
(1.00223 -0.00386247 0)
(1.00229 -0.0046889 0)
(1.00235 -0.00551294 0)
(1.00242 -0.00633465 0)
(1.0025 -0.00715527 0)
(1.00257 -0.00797508 0)
(1.00264 -0.00879339 0)
(1.00271 -0.00960894 0)
(1.00277 -0.0104199 0)
(1.00281 -0.0112239 0)
(1.00285 -0.0120182 0)
(1.00287 -0.0127995 0)
(1.00288 -0.0135644 0)
(1.00287 -0.0143092 0)
(1.00284 -0.0150301 0)
(1.00279 -0.0157235 0)
(1.00271 -0.0163855 0)
(1.00261 -0.0170127 0)
(1.00249 -0.0176018 0)
(1.00235 -0.0181499 0)
(1.00218 -0.0186546 0)
(1.00199 -0.0191139 0)
(1.00178 -0.019526 0)
(1.00156 -0.0198901 0)
(1.00131 -0.0202055 0)
(1.00105 -0.0204723 0)
(1.00078 -0.0206908 0)
(1.0005 -0.020862 0)
(1.0002 -0.0209871 0)
(0.999903 -0.0210679 0)
(0.999598 -0.0211062 0)
(0.999291 -0.0211044 0)
(0.998982 -0.021065 0)
(0.998675 -0.0209905 0)
(0.998369 -0.0208838 0)
(0.998067 -0.0207475 0)
(0.99777 -0.0205844 0)
(0.997479 -0.0203971 0)
(0.997195 -0.0201884 0)
(0.996919 -0.0199607 0)
(0.996652 -0.0197168 0)
(0.996393 -0.0194591 0)
(0.996145 -0.0191901 0)
(0.995906 -0.0189121 0)
(0.995677 -0.0186271 0)
(0.99546 -0.0183372 0)
(0.995253 -0.0180441 0)
(0.995057 -0.0177493 0)
(0.994871 -0.017454 0)
(0.994695 -0.0171595 0)
(0.994528 -0.0168667 0)
(0.994369 -0.0165767 0)
(0.994217 -0.0162904 0)
(0.994073 -0.0160086 0)
(0.993935 -0.0157319 0)
(0.993805 -0.0154611 0)
(0.993681 -0.0151967 0)
(0.993565 -0.0149391 0)
(0.993456 -0.0146887 0)
(0.993354 -0.0144457 0)
(0.993258 -0.0142104 0)
(0.993168 -0.0139829 0)
(0.993084 -0.0137634 0)
(0.993005 -0.013552 0)
(0.992932 -0.0133487 0)
(1.00274 -0.000446221 0)
(1.00276 -0.0015545 0)
(1.0028 -0.00247954 0)
(1.00286 -0.00347358 0)
(1.00293 -0.00442708 0)
(1.00301 -0.00537475 0)
(1.0031 -0.00631944 0)
(1.0032 -0.00726159 0)
(1.0033 -0.00820307 0)
(1.00341 -0.00914437 0)
(1.00351 -0.010085 0)
(1.0036 -0.0110238 0)
(1.00369 -0.011959 0)
(1.00377 -0.0128882 0)
(1.00383 -0.0138084 0)
(1.00388 -0.0147163 0)
(1.0039 -0.0156081 0)
(1.0039 -0.0164798 0)
(1.00387 -0.0173271 0)
(1.00382 -0.0181456 0)
(1.00374 -0.0189312 0)
(1.00362 -0.0196796 0)
(1.00348 -0.0203869 0)
(1.0033 -0.0210494 0)
(1.00309 -0.0216641 0)
(1.00286 -0.0222281 0)
(1.00259 -0.0227392 0)
(1.0023 -0.0231958 0)
(1.00198 -0.0235967 0)
(1.00164 -0.0239416 0)
(1.00128 -0.0242304 0)
(1.0009 -0.0244638 0)
(1.00051 -0.024643 0)
(1.0001 -0.0247695 0)
(0.999693 -0.0248454 0)
(0.999277 -0.024873 0)
(0.998857 -0.0248549 0)
(0.998437 -0.024794 0)
(0.998019 -0.0246932 0)
(0.997605 -0.0245557 0)
(0.997197 -0.0243847 0)
(0.996796 -0.0241835 0)
(0.996404 -0.0239553 0)
(0.996023 -0.0237035 0)
(0.995652 -0.023431 0)
(0.995294 -0.0231406 0)
(0.994948 -0.0228352 0)
(0.994615 -0.0225171 0)
(0.994295 -0.0221889 0)
(0.993989 -0.0218528 0)
(0.993695 -0.0215109 0)
(0.993414 -0.0211653 0)
(0.993145 -0.0208178 0)
(0.992889 -0.0204703 0)
(0.992645 -0.0201242 0)
(0.992415 -0.0197809 0)
(0.992198 -0.0194417 0)
(0.991995 -0.0191074 0)
(0.991804 -0.0187788 0)
(0.991624 -0.0184568 0)
(0.991456 -0.0181419 0)
(0.991298 -0.0178347 0)
(0.991149 -0.0175357 0)
(0.99101 -0.0172453 0)
(0.990878 -0.0169637 0)
(0.990754 -0.0166913 0)
(0.990638 -0.0164282 0)
(0.990529 -0.0161746 0)
(0.990426 -0.0159306 0)
(1.00344 -0.000502176 0)
(1.00346 -0.00174216 0)
(1.00352 -0.00278017 0)
(1.00359 -0.00389464 0)
(1.00368 -0.00496168 0)
(1.00379 -0.00602294 0)
(1.00391 -0.00707998 0)
(1.00404 -0.00813368 0)
(1.00417 -0.0091865 0)
(1.00431 -0.0102392 0)
(1.00444 -0.0112913 0)
(1.00457 -0.0123422 0)
(1.00469 -0.01339 0)
(1.0048 -0.0144325 0)
(1.00489 -0.0154669 0)
(1.00496 -0.0164896 0)
(1.00501 -0.0174968 0)
(1.00502 -0.0184842 0)
(1.00501 -0.0194473 0)
(1.00496 -0.0203814 0)
(1.00487 -0.0212818 0)
(1.00474 -0.0221437 0)
(1.00458 -0.0229626 0)
(1.00437 -0.0237342 0)
(1.00412 -0.0244547 0)
(1.00384 -0.0251205 0)
(1.00351 -0.0257288 0)
(1.00315 -0.0262771 0)
(1.00275 -0.0267638 0)
(1.00233 -0.0271878 0)
(1.00187 -0.0275486 0)
(1.0014 -0.0278465 0)
(1.0009 -0.0280823 0)
(1.00038 -0.0282572 0)
(0.999857 -0.0283731 0)
(0.99932 -0.0284324 0)
(0.998778 -0.0284378 0)
(0.998234 -0.0283922 0)
(0.99769 -0.028299 0)
(0.99715 -0.0281617 0)
(0.996617 -0.0279838 0)
(0.996092 -0.027769 0)
(0.995577 -0.0275209 0)
(0.995075 -0.0272431 0)
(0.994586 -0.0269391 0)
(0.994113 -0.0266126 0)
(0.993656 -0.0262668 0)
(0.993215 -0.0259051 0)
(0.992793 -0.0255307 0)
(0.992388 -0.0251464 0)
(0.992002 -0.0247548 0)
(0.991634 -0.0243581 0)
(0.991285 -0.0239585 0)
(0.990953 -0.0235576 0)
(0.990639 -0.0231572 0)
(0.990339 -0.0227588 0)
(0.990054 -0.0223638 0)
(0.989782 -0.0219737 0)
(0.989524 -0.0215897 0)
(0.989278 -0.0212128 0)
(0.989046 -0.020844 0)
(0.988827 -0.020484 0)
(0.988621 -0.0201333 0)
(0.988427 -0.0197926 0)
(0.988245 -0.019462 0)
(0.988074 -0.0191421 0)
(0.987914 -0.0188328 0)
(0.987764 -0.0185346 0)
(0.987623 -0.0182474 0)
(1.0042 -0.000557733 0)
(1.00422 -0.00192544 0)
(1.00429 -0.00307231 0)
(1.00438 -0.00430327 0)
(1.00449 -0.00547947 0)
(1.00462 -0.00664951 0)
(1.00477 -0.00781342 0)
(1.00493 -0.00897261 0)
(1.00509 -0.01013 0)
(1.00526 -0.0112866 0)
(1.00543 -0.0124423 0)
(1.0056 -0.0135965 0)
(1.00576 -0.0147479 0)
(1.0059 -0.0158943 0)
(1.00602 -0.017033 0)
(1.00612 -0.0181607 0)
(1.00619 -0.0192735 0)
(1.00623 -0.0203673 0)
(1.00622 -0.0214373 0)
(1.00618 -0.0224787 0)
(1.00609 -0.0234864 0)
(1.00596 -0.0244553 0)
(1.00578 -0.0253804 0)
(1.00554 -0.0262568 0)
(1.00526 -0.0270799 0)
(1.00492 -0.0278456 0)
(1.00454 -0.0285502 0)
(1.00411 -0.0291907 0)
(1.00364 -0.0297644 0)
(1.00312 -0.0302697 0)
(1.00257 -0.0307054 0)
(1.00199 -0.0310712 0)
(1.00138 -0.0313673 0)
(1.00075 -0.0315946 0)
(1.0001 -0.031755 0)
(0.999431 -0.0318504 0)
(0.998756 -0.0318835 0)
(0.998075 -0.0318576 0)
(0.997393 -0.0317759 0)
(0.996714 -0.0316421 0)
(0.99604 -0.0314603 0)
(0.995376 -0.0312343 0)
(0.994723 -0.0309685 0)
(0.994085 -0.030667 0)
(0.993462 -0.0303339 0)
(0.992858 -0.0299731 0)
(0.992273 -0.0295884 0)
(0.991708 -0.0291834 0)
(0.991164 -0.0287614 0)
(0.990641 -0.0283256 0)
(0.99014 -0.027879 0)
(0.989658 -0.0274247 0)
(0.989197 -0.0269654 0)
(0.988756 -0.0265038 0)
(0.988335 -0.0260422 0)
(0.987936 -0.0255828 0)
(0.98756 -0.0251273 0)
(0.987205 -0.0246769 0)
(0.986872 -0.024233 0)
(0.98656 -0.0237967 0)
(0.986266 -0.0233688 0)
(0.985989 -0.0229503 0)
(0.985729 -0.0225419 0)
(0.985484 -0.0221445 0)
(0.985253 -0.0217585 0)
(0.985036 -0.0213844 0)
(0.984832 -0.0210225 0)
(0.984641 -0.0206732 0)
(0.984461 -0.0203368 0)
(1.00499 -0.000612762 0)
(1.00502 -0.00210506 0)
(1.0051 -0.00335829 0)
(1.0052 -0.00470284 0)
(1.00534 -0.00598481 0)
(1.00549 -0.00726003 0)
(1.00567 -0.00852671 0)
(1.00586 -0.00978679 0)
(1.00606 -0.0110437 0)
(1.00626 -0.0122984 0)
(1.00647 -0.0135515 0)
(1.00667 -0.0148024 0)
(1.00687 -0.0160502 0)
(1.00704 -0.017293 0)
(1.0072 -0.0185285 0)
(1.00733 -0.0197535 0)
(1.00743 -0.0209646 0)
(1.00749 -0.0221574 0)
(1.00751 -0.0233276 0)
(1.00748 -0.0244702 0)
(1.0074 -0.02558 0)
(1.00726 -0.0266517 0)
(1.00706 -0.0276798 0)
(1.00681 -0.028659 0)
(1.00649 -0.0295842 0)
(1.00611 -0.0304506 0)
(1.00568 -0.0312536 0)
(1.00518 -0.0319894 0)
(1.00463 -0.0326547 0)
(1.00403 -0.0332469 0)
(1.00338 -0.033764 0)
(1.0027 -0.034205 0)
(1.00197 -0.0345695 0)
(1.00121 -0.034858 0)
(1.00043 -0.0350714 0)
(0.999623 -0.0352118 0)
(0.998804 -0.0352814 0)
(0.997975 -0.0352832 0)
(0.997142 -0.0352206 0)
(0.996309 -0.0350976 0)
(0.995481 -0.0349182 0)
(0.994662 -0.0346867 0)
(0.993855 -0.0344077 0)
(0.993063 -0.0340855 0)
(0.99229 -0.0337249 0)
(0.991538 -0.0333301 0)
(0.990809 -0.0329059 0)
(0.990104 -0.0324565 0)
(0.989425 -0.0319862 0)
(0.988773 -0.031499 0)
(0.988148 -0.0309985 0)
(0.987553 -0.0304881 0)
(0.986986 -0.0299705 0)
(0.986448 -0.0294484 0)
(0.985937 -0.0289241 0)
(0.98545 -0.0283999 0)
(0.984986 -0.027878 0)
(0.984544 -0.0273607 0)
(0.984122 -0.0268498 0)
(0.98372 -0.0263473 0)
(0.98334 -0.0258544 0)
(0.98298 -0.0253724 0)
(0.982641 -0.0249021 0)
(0.982322 -0.0244442 0)
(0.982022 -0.0239995 0)
(0.981741 -0.0235683 0)
(0.981477 -0.0231511 0)
(0.98123 -0.0227481 0)
(0.980998 -0.0223596 0)
(1.00581 -0.000666513 0)
(1.00585 -0.00227942 0)
(1.00594 -0.00363633 0)
(1.00606 -0.00509096 0)
(1.00621 -0.00647493 0)
(1.00639 -0.00785156 0)
(1.00659 -0.00921693 0)
(1.00681 -0.0105735 0)
(1.00705 -0.0119251 0)
(1.00729 -0.0132731 0)
(1.00753 -0.014618 0)
(1.00777 -0.01596 0)
(1.008 -0.0172983 0)
(1.00822 -0.0186316 0)
(1.00841 -0.0199577 0)
(1.00858 -0.0212742 0)
(1.00871 -0.0225776 0)
(1.0088 -0.0238643 0)
(1.00884 -0.0251299 0)
(1.00882 -0.0263697 0)
(1.00875 -0.0275785 0)
(1.00862 -0.028751 0)
(1.00842 -0.0298815 0)
(1.00815 -0.0309644 0)
(1.0078 -0.031994 0)
(1.00739 -0.0329648 0)
(1.0069 -0.0338717 0)
(1.00635 -0.0347099 0)
(1.00573 -0.0354753 0)
(1.00504 -0.0361642 0)
(1.0043 -0.036774 0)
(1.0035 -0.0373025 0)
(1.00266 -0.0377484 0)
(1.00177 -0.0381114 0)
(1.00085 -0.038392 0)
(0.999905 -0.0385912 0)
(0.998934 -0.0387111 0)
(0.997947 -0.0387544 0)
(0.996952 -0.0387244 0)
(0.995953 -0.0386248 0)
(0.994957 -0.0384598 0)
(0.993969 -0.0382339 0)
(0.992993 -0.037952 0)
(0.992034 -0.037619 0)
(0.991095 -0.03724 0)
(0.990179 -0.03682 0)
(0.989289 -0.036364 0)
(0.988427 -0.0358765 0)
(0.987595 -0.035362 0)
(0.986792 -0.0348249 0)
(0.98602 -0.0342693 0)
(0.985278 -0.0336994 0)
(0.984564 -0.033119 0)
(0.983879 -0.0325323 0)
(0.983224 -0.0319426 0)
(0.982602 -0.0313531 0)
(0.982013 -0.0307663 0)
(0.981459 -0.0301839 0)
(0.980939 -0.0296078 0)
(0.98045 -0.0290393 0)
(0.97999 -0.02848 0)
(0.979558 -0.0279312 0)
(0.979151 -0.0273943 0)
(0.978767 -0.0268703 0)
(0.978405 -0.0263603 0)
(0.978064 -0.0258651 0)
(0.977743 -0.0253852 0)
(0.977442 -0.0249213 0)
(0.977159 -0.0244737 0)
(1.00665 -0.000718227 0)
(1.00669 -0.00244633 0)
(1.0068 -0.00390303 0)
(1.00693 -0.00546307 0)
(1.0071 -0.00694438 0)
(1.0073 -0.00841791 0)
(1.00753 -0.00987734 0)
(1.00778 -0.0113257 0)
(1.00805 -0.0127672 0)
(1.00832 -0.0142034 0)
(1.0086 -0.0156352 0)
(1.00888 -0.0170631 0)
(1.00915 -0.0184868 0)
(1.0094 -0.0199053 0)
(1.00964 -0.0213171 0)
(1.00984 -0.0227201 0)
(1.01 -0.0241115 0)
(1.01012 -0.0254879 0)
(1.01019 -0.0268457 0)
(1.0102 -0.0281802 0)
(1.01015 -0.0294867 0)
(1.01002 -0.0307599 0)
(1.00982 -0.0319941 0)
(1.00954 -0.0331835 0)
(1.00918 -0.034322 0)
(1.00874 -0.0354036 0)
(1.00822 -0.0364226 0)
(1.00761 -0.0373733 0)
(1.00692 -0.0382507 0)
(1.00616 -0.03905 0)
(1.00533 -0.0397674 0)
(1.00443 -0.0403997 0)
(1.00347 -0.0409446 0)
(1.00246 -0.0414006 0)
(1.0014 -0.0417672 0)
(1.0003 -0.0420447 0)
(0.99917 -0.0422344 0)
(0.998019 -0.0423384 0)
(0.996853 -0.0423594 0)
(0.995678 -0.042301 0)
(0.994502 -0.0421671 0)
(0.993332 -0.0419623 0)
(0.992172 -0.0416916 0)
(0.991028 -0.0413601 0)
(0.989906 -0.0409732 0)
(0.988808 -0.0405365 0)
(0.987739 -0.0400554 0)
(0.986701 -0.0395356 0)
(0.985698 -0.0389827 0)
(0.984731 -0.0384021 0)
(0.983802 -0.0377987 0)
(0.982913 -0.0371773 0)
(0.982067 -0.0365416 0)
(0.981263 -0.0358953 0)
(0.980499 -0.0352414 0)
(0.979771 -0.0345832 0)
(0.979076 -0.033924 0)
(0.978411 -0.0332672 0)
(0.977774 -0.032616 0)
(0.977167 -0.031973 0)
(0.976591 -0.0313405 0)
(0.976045 -0.0307202 0)
(0.97553 -0.0301135 0)
(0.975046 -0.0295216 0)
(0.97459 -0.0289453 0)
(0.974163 -0.0283853 0)
(0.973762 -0.0278424 0)
(0.973386 -0.0273171 0)
(0.973034 -0.0268098 0)
(1.0075 -0.000767356 0)
(1.00755 -0.00260401 0)
(1.00766 -0.00415543 0)
(1.00781 -0.00581519 0)
(1.008 -0.00738842 0)
(1.00823 -0.00895364 0)
(1.00848 -0.010502 0)
(1.00876 -0.0120371 0)
(1.00906 -0.0135636 0)
(1.00937 -0.0150831 0)
(1.00968 -0.016597 0)
(1.01 -0.0181061 0)
(1.0103 -0.0196105 0)
(1.0106 -0.0211098 0)
(1.01087 -0.022603 0)
(1.01111 -0.0240885 0)
(1.01131 -0.0255643 0)
(1.01147 -0.0270276 0)
(1.01157 -0.0284751 0)
(1.0116 -0.029903 0)
(1.01157 -0.0313069 0)
(1.01147 -0.0326818 0)
(1.01128 -0.0340221 0)
(1.011 -0.0353221 0)
(1.01064 -0.0365755 0)
(1.01018 -0.0377759 0)
(1.00962 -0.0389169 0)
(1.00897 -0.0399922 0)
(1.00823 -0.0409956 0)
(1.0074 -0.0419214 0)
(1.00649 -0.0427645 0)
(1.00549 -0.0435204 0)
(1.00442 -0.0441855 0)
(1.00328 -0.0447571 0)
(1.00208 -0.0452332 0)
(1.00084 -0.0456132 0)
(0.999549 -0.0458973 0)
(0.998228 -0.0460865 0)
(0.996884 -0.046183 0)
(0.995524 -0.0461897 0)
(0.994158 -0.0461105 0)
(0.992792 -0.0459497 0)
(0.991434 -0.0457124 0)
(0.990091 -0.0454039 0)
(0.988769 -0.0450301 0)
(0.987473 -0.0445968 0)
(0.986208 -0.04411 0)
(0.984977 -0.0435755 0)
(0.983784 -0.0429991 0)
(0.98263 -0.0423861 0)
(0.981517 -0.0417419 0)
(0.980442 -0.0410721 0)
(0.979405 -0.0403819 0)
(0.978407 -0.0396771 0)
(0.977449 -0.0389628 0)
(0.976536 -0.0382437 0)
(0.975672 -0.0375232 0)
(0.974859 -0.0368042 0)
(0.974096 -0.0360888 0)
(0.97338 -0.0353792 0)
(0.972707 -0.0346776 0)
(0.972073 -0.0339861 0)
(0.971475 -0.0333068 0)
(0.97091 -0.0326416 0)
(0.970377 -0.0319922 0)
(0.969875 -0.0313598 0)
(0.969401 -0.0307457 0)
(0.968956 -0.0301507 0)
(0.968537 -0.0295756 0)
(1.00836 -0.000813618 0)
(1.00841 -0.00275156 0)
(1.00854 -0.00439193 0)
(1.0087 -0.0061452 0)
(1.00891 -0.00780458 0)
(1.00916 -0.00945603 0)
(1.00944 -0.0110881 0)
(1.00975 -0.0127049 0)
(1.01007 -0.0143115 0)
(1.01042 -0.0159098 0)
(1.01077 -0.0175013 0)
(1.01112 -0.0190873 0)
(1.01146 -0.0206684 0)
(1.0118 -0.0222447 0)
(1.01211 -0.0238156 0)
(1.01239 -0.0253805 0)
(1.01263 -0.0269378 0)
(1.01282 -0.0284856 0)
(1.01296 -0.0300213 0)
(1.01304 -0.0315419 0)
(1.01304 -0.0330433 0)
(1.01296 -0.0345214 0)
(1.01279 -0.0359708 0)
(1.01252 -0.037386 0)
(1.01216 -0.0387607 0)
(1.0117 -0.0400884 0)
(1.01113 -0.0413621 0)
(1.01045 -0.0425748 0)
(1.00966 -0.0437195 0)
(1.00878 -0.0447894 0)
(1.00779 -0.045778 0)
(1.0067 -0.0466796 0)
(1.00553 -0.0474888 0)
(1.00428 -0.0482015 0)
(1.00295 -0.0488142 0)
(1.00155 -0.0493246 0)
(1.00011 -0.0497316 0)
(0.998615 -0.0500352 0)
(0.997088 -0.0502362 0)
(0.995536 -0.0503367 0)
(0.99397 -0.0503398 0)
(0.992398 -0.0502493 0)
(0.990829 -0.0500696 0)
(0.989272 -0.0498061 0)
(0.987733 -0.0494644 0)
(0.98622 -0.0490506 0)
(0.984739 -0.0485711 0)
(0.983294 -0.0480327 0)
(0.981889 -0.0474424 0)
(0.980529 -0.0468071 0)
(0.979218 -0.0461337 0)
(0.977961 -0.0454286 0)
(0.97676 -0.0446974 0)
(0.975618 -0.0439448 0)
(0.974532 -0.0431751 0)
(0.973498 -0.0423925 0)
(0.972507 -0.0416016 0)
(0.971555 -0.0408075 0)
(0.97064 -0.040015 0)
(0.969765 -0.0392283 0)
(0.968932 -0.0384509 0)
(0.968143 -0.0376852 0)
(0.967399 -0.0369335 0)
(0.966698 -0.0361972 0)
(0.96604 -0.0354779 0)
(0.965422 -0.0347769 0)
(0.964842 -0.0340951 0)
(0.964299 -0.0334336 0)
(0.963789 -0.0327933 0)
(1.00922 -0.000857006 0)
(1.00928 -0.00288901 0)
(1.00942 -0.00461246 0)
(1.00959 -0.00645309 0)
(1.00982 -0.00819296 0)
(1.01009 -0.00992533 0)
(1.0104 -0.011636 0)
(1.01073 -0.0133299 0)
(1.01109 -0.0150121 0)
(1.01146 -0.016685 0)
(1.01185 -0.0183503 0)
(1.01224 -0.0200096 0)
(1.01262 -0.0216639 0)
(1.01299 -0.0233139 0)
(1.01334 -0.0249597 0)
(1.01367 -0.0266013 0)
(1.01395 -0.0282378 0)
(1.01419 -0.0298683 0)
(1.01437 -0.0314909 0)
(1.01449 -0.0331035 0)
(1.01452 -0.0347029 0)
(1.01448 -0.0362854 0)
(1.01434 -0.0378466 0)
(1.0141 -0.0393812 0)
(1.01375 -0.0408833 0)
(1.0133 -0.0423462 0)
(1.01272 -0.0437629 0)
(1.01203 -0.0451256 0)
(1.01122 -0.0464267 0)
(1.01029 -0.0476583 0)
(1.00925 -0.0488127 0)
(1.00809 -0.0498825 0)
(1.00683 -0.0508608 0)
(1.00547 -0.0517417 0)
(1.00401 -0.0525199 0)
(1.00248 -0.0531914 0)
(1.00088 -0.0537531 0)
(0.999217 -0.0542035 0)
(0.997507 -0.0545421 0)
(0.99576 -0.0547695 0)
(0.993987 -0.0548877 0)
(0.9922 -0.0549 0)
(0.990408 -0.0548104 0)
(0.988623 -0.0546241 0)
(0.986852 -0.0543468 0)
(0.985106 -0.0539851 0)
(0.98339 -0.0535457 0)
(0.981712 -0.0530355 0)
(0.980077 -0.0524613 0)
(0.97849 -0.0518299 0)
(0.976952 -0.0511478 0)
(0.975462 -0.0504216 0)
(0.974021 -0.0496582 0)
(0.972626 -0.0488651 0)
(0.971283 -0.0480497 0)
(0.969997 -0.0472188 0)
(0.968779 -0.0463779 0)
(0.967633 -0.0455311 0)
(0.966559 -0.0446815 0)
(0.965552 -0.0438321 0)
(0.964605 -0.0429862 0)
(0.963712 -0.0421474 0)
(0.962867 -0.0413188 0)
(0.962068 -0.0405037 0)
(0.961313 -0.0397045 0)
(0.960599 -0.0389236 0)
(0.959927 -0.0381627 0)
(0.959293 -0.0374234 0)
(0.958698 -0.0367069 0)
(1.01007 -0.000897707 0)
(1.01014 -0.00301704 0)
(1.01029 -0.00481809 0)
(1.01047 -0.00674034 0)
(1.01072 -0.00855553 0)
(1.01101 -0.010364 0)
(1.01134 -0.0121488 0)
(1.0117 -0.0139155 0)
(1.01209 -0.0156696 0)
(1.0125 -0.0174134 0)
(1.01292 -0.0191491 0)
(1.01334 -0.0208786 0)
(1.01377 -0.0226034 0)
(1.01418 -0.0243244 0)
(1.01457 -0.0260427 0)
(1.01494 -0.0277586 0)
(1.01527 -0.0294724 0)
(1.01555 -0.0311837 0)
(1.01578 -0.0328919 0)
(1.01594 -0.0345956 0)
(1.01603 -0.0362927 0)
(1.01602 -0.0379805 0)
(1.01593 -0.0396552 0)
(1.01572 -0.0413124 0)
(1.01541 -0.0429465 0)
(1.01497 -0.0445512 0)
(1.01441 -0.0461194 0)
(1.01372 -0.0476432 0)
(1.0129 -0.0491143 0)
(1.01195 -0.0505238 0)
(1.01087 -0.0518629 0)
(1.00966 -0.0531228 0)
(1.00832 -0.0542949 0)
(1.00687 -0.0553712 0)
(1.00531 -0.0563446 0)
(1.00365 -0.0572088 0)
(1.0019 -0.0579589 0)
(1.00007 -0.0585911 0)
(0.998182 -0.0591028 0)
(0.99624 -0.0594933 0)
(0.994258 -0.0597628 0)
(0.992249 -0.059913 0)
(0.990226 -0.059947 0)
(0.988201 -0.0598687 0)
(0.986185 -0.0596831 0)
(0.984188 -0.059396 0)
(0.982219 -0.0590139 0)
(0.980286 -0.0585441 0)
(0.978397 -0.0579947 0)
(0.976558 -0.0573743 0)
(0.974776 -0.0566916 0)
(0.973058 -0.0559556 0)
(0.971413 -0.0551743 0)
(0.969844 -0.0543547 0)
(0.968351 -0.0535025 0)
(0.966927 -0.0526231 0)
(0.965561 -0.0517226 0)
(0.964242 -0.0508079 0)
(0.962971 -0.049886 0)
(0.961749 -0.0489633 0)
(0.960585 -0.0480449 0)
(0.959481 -0.0471345 0)
(0.958439 -0.0462354 0)
(0.957459 -0.04535 0)
(0.956539 -0.0444807 0)
(0.955675 -0.0436295 0)
(0.954865 -0.0427983 0)
(0.954105 -0.0419888 0)
(0.953392 -0.0412026 0)
(1.01092 -0.000935965 0)
(1.01099 -0.0031366 0)
(1.01115 -0.00501032 0)
(1.01135 -0.00700908 0)
(1.01161 -0.00889497 0)
(1.01193 -0.0107752 0)
(1.01228 -0.0126302 0)
(1.01267 -0.0144661 0)
(1.01308 -0.0162887 0)
(1.01352 -0.0181005 0)
(1.01397 -0.0199038 0)
(1.01444 -0.0217009 0)
(1.0149 -0.0234936 0)
(1.01535 -0.0252834 0)
(1.01579 -0.0270718 0)
(1.0162 -0.02886 0)
(1.01658 -0.0306489 0)
(1.01691 -0.0324392 0)
(1.01719 -0.0342312 0)
(1.0174 -0.0360245 0)
(1.01754 -0.0378183 0)
(1.01759 -0.0396108 0)
(1.01754 -0.0413993 0)
(1.01739 -0.0431803 0)
(1.01712 -0.044949 0)
(1.01672 -0.0466998 0)
(1.01619 -0.0484258 0)
(1.01552 -0.0501191 0)
(1.01471 -0.0517711 0)
(1.01376 -0.0533724 0)
(1.01266 -0.054913 0)
(1.01141 -0.0563828 0)
(1.01003 -0.0577715 0)
(1.0085 -0.0590694 0)
(1.00685 -0.0602669 0)
(1.00508 -0.0613556 0)
(1.0032 -0.062328 0)
(1.00122 -0.0631779 0)
(0.999153 -0.0639005 0)
(0.997019 -0.0644927 0)
(0.994828 -0.0649528 0)
(0.992595 -0.0652808 0)
(0.990335 -0.0654784 0)
(0.98806 -0.0655488 0)
(0.985784 -0.0654965 0)
(0.983519 -0.0653277 0)
(0.981278 -0.0650491 0)
(0.979071 -0.0646684 0)
(0.976907 -0.0641936 0)
(0.974793 -0.0636324 0)
(0.972736 -0.0629924 0)
(0.970736 -0.0622812 0)
(0.968794 -0.0615066 0)
(0.966907 -0.0606777 0)
(0.96508 -0.0598042 0)
(0.963324 -0.058896 0)
(0.961655 -0.0579617 0)
(0.960084 -0.0570076 0)
(0.958612 -0.0560386 0)
(0.957232 -0.0550592 0)
(0.955934 -0.0540742 0)
(0.954706 -0.0530889 0)
(0.953543 -0.0521086 0)
(0.952441 -0.051138 0)
(0.951398 -0.0501812 0)
(0.950412 -0.0492418 0)
(0.949481 -0.0483225 0)
(0.948604 -0.047426 0)
(0.94778 -0.0465542 0)
(1.01176 -0.000971985 0)
(1.01183 -0.00324851 0)
(1.012 -0.00519056 0)
(1.01221 -0.0072613 0)
(1.01249 -0.0092138 0)
(1.01283 -0.0111621 0)
(1.0132 -0.0130837 0)
(1.01362 -0.0149857 0)
(1.01406 -0.0168739 0)
(1.01453 -0.0187509 0)
(1.01502 -0.0206193 0)
(1.01551 -0.0224817 0)
(1.01601 -0.0243401 0)
(1.01651 -0.0261966 0)
(1.01699 -0.0280529 0)
(1.01745 -0.0299111 0)
(1.01787 -0.0317729 0)
(1.01826 -0.0336398 0)
(1.01859 -0.0355132 0)
(1.01886 -0.0373938 0)
(1.01906 -0.0392819 0)
(1.01917 -0.0411771 0)
(1.01918 -0.0430779 0)
(1.01909 -0.044982 0)
(1.01887 -0.0468856 0)
(1.01853 -0.0487841 0)
(1.01805 -0.0506711 0)
(1.01742 -0.0525392 0)
(1.01665 -0.0543798 0)
(1.01571 -0.0561832 0)
(1.01462 -0.0579388 0)
(1.01336 -0.0596351 0)
(1.01194 -0.0612606 0)
(1.01037 -0.0628033 0)
(1.00865 -0.0642519 0)
(1.00679 -0.0655953 0)
(1.00479 -0.0668233 0)
(1.00268 -0.067927 0)
(1.00045 -0.068899 0)
(0.998135 -0.0697331 0)
(0.995742 -0.0704252 0)
(0.993286 -0.0709729 0)
(0.990785 -0.0713756 0)
(0.988254 -0.0716343 0)
(0.98571 -0.0717516 0)
(0.983166 -0.0717316 0)
(0.980638 -0.0715795 0)
(0.978137 -0.0713019 0)
(0.975676 -0.0709066 0)
(0.973264 -0.0704029 0)
(0.970912 -0.0698015 0)
(0.96863 -0.0691138 0)
(0.966431 -0.0683514 0)
(0.964327 -0.0675246 0)
(0.96232 -0.0666418 0)
(0.960404 -0.0657102 0)
(0.958562 -0.064737 0)
(0.956779 -0.0637309 0)
(0.955053 -0.0627016 0)
(0.953389 -0.0616583 0)
(0.951799 -0.0606087 0)
(0.950291 -0.0595586 0)
(0.948868 -0.0585126 0)
(0.94753 -0.0574747 0)
(0.946274 -0.0564486 0)
(0.945094 -0.0554377 0)
(0.943988 -0.0544451 0)
(0.942949 -0.0534738 0)
(0.941976 -0.0525263 0)
(1.01258 -0.00100593 0)
(1.01266 -0.00335344 0)
(1.01283 -0.00535992 0)
(1.01306 -0.00749851 0)
(1.01336 -0.0095139 0)
(1.01371 -0.0115267 0)