/*--------------------------------*- C++ -*----------------------------------*\
  =========                 |
  \\      /  F ield         | OpenFOAM: The Open Source CFD Toolbox
   \\    /   O peration     | Website:  https://openfoam.org
    \\  /    A nd           | Version:  10
     \\/     M anipulation  |
\*---------------------------------------------------------------------------*/
FoamFile
{
    format      ascii;
    class       volVectorField;
    location    "270";
    object      U;
}
// * * * * * * * * * * * * * * * * * * * * * * * * * * * * * * * * * * * * * //

dimensions      [0 1 -1 0 0 0 0];

internalField   nonuniform List<vector> 
66268
(
(1 -4.5927e-05 0)
(1 -0.000168249 0)
(1 -0.000268022 0)
(1 -0.000372211 0)
(1 -0.000473514 0)
(1 -0.000572441 0)
(1 -0.000669569 0)
(1 -0.000764858 0)
(1 -0.000858098 0)
(1 -0.000949043 0)
(1 -0.00103738 0)
(1 -0.00112273 0)
(1 -0.00120468 0)
(1 -0.0012828 0)
(1 -0.00135665 0)
(1 -0.0014258 0)
(1 -0.00148984 0)
(1 -0.0015484 0)
(1 -0.00160115 0)
(1 -0.00164784 0)
(1 -0.00168825 0)
(1 -0.00172224 0)
(1 -0.00174973 0)
(1 -0.00177074 0)
(1 -0.0017853 0)
(1 -0.00179356 0)
(1 -0.00179568 0)
(1 -0.00179191 0)
(1 -0.00178252 0)
(1 -0.00176787 0)
(1 -0.00174829 0)
(1 -0.00172416 0)
(1 -0.00169589 0)
(1 -0.00166386 0)
(0.999999 -0.00162848 0)
(0.999999 -0.00159015 0)
(0.999999 -0.00154928 0)
(0.999999 -0.00150626 0)
(0.999999 -0.00146147 0)
(0.999999 -0.00141524 0)
(0.999999 -0.00136788 0)
(0.999999 -0.00131963 0)
(0.999999 -0.0012707 0)
(0.999998 -0.00122128 0)
(0.999998 -0.00117154 0)
(0.999996 -0.00112162 0)
(0.999994 -0.0010717 0)
(0.99999 -0.00102194 0)
(0.999984 -0.00097253 0)
(0.999976 -0.000923669 0)
(0.999966 -0.000875566 0)
(0.999956 -0.000828414 0)
(0.999946 -0.000782368 0)
(0.999939 -0.000737534 0)
(0.999936 -0.000693974 0)
(0.999936 -0.000651722 0)
(0.999938 -0.000610804 0)
(0.999943 -0.000571241 0)
(0.999949 -0.000533057 0)
(0.999956 -0.000496275 0)
(0.999962 -0.000460916 0)
(0.999968 -0.000426988 0)
(0.999973 -0.000394492 0)
(0.999978 -0.000363417 0)
(0.999981 -0.000333745 0)
(0.999984 -0.000305444 0)
(0.999987 -0.000278478 0)
(0.999988 -0.000252848 0)
(0.99999 -0.000228555 0)
(1.0002 -0.000138253 0)
(1.0002 -0.0004989 0)
(1.0002 -0.000792534 0)
(1.0002 -0.00110259 0)
(1.00021 -0.00140307 0)
(1.00021 -0.00169655 0)
(1.00021 -0.0019852 0)
(1.00022 -0.00226869 0)
(1.00022 -0.00254644 0)
(1.00022 -0.00281778 0)
(1.00022 -0.00308178 0)
(1.00022 -0.00333736 0)
(1.00022 -0.00358329 0)
(1.00022 -0.00381829 0)
(1.00021 -0.00404106 0)
(1.00021 -0.0042503 0)
(1.0002 -0.00444479 0)
(1.00019 -0.0046234 0)
(1.00017 -0.00478515 0)
(1.00016 -0.0049292 0)
(1.00014 -0.00505491 0)
(1.00012 -0.0051618 0)
(1.0001 -0.00524963 0)
(1.00008 -0.00531834 0)
(1.00005 -0.00536808 0)
(1.00003 -0.00539917 0)
(0.999999 -0.00541213 0)
(0.99997 -0.0054076 0)
(0.999941 -0.00538637 0)
(0.99991 -0.00534936 0)
(0.99988 -0.00529759 0)
(0.999849 -0.00523216 0)
(0.999818 -0.00515415 0)
(0.999788 -0.00506471 0)
(0.999757 -0.00496496 0)
(0.999727 -0.00485604 0)
(0.999698 -0.00473902 0)
(0.999669 -0.00461494 0)
(0.999641 -0.00448482 0)
(0.999614 -0.00434962 0)
(0.999587 -0.00421033 0)
(0.999561 -0.00406792 0)
(0.999536 -0.00392338 0)
(0.999512 -0.00377762 0)
(0.999488 -0.00363152 0)
(0.999466 -0.00348586 0)
(0.999446 -0.0033413 0)
(0.999428 -0.00319841 0)
(0.999413 -0.00305763 0)
(0.999402 -0.0029193 0)
(0.999394 -0.00278365 0)
(0.999387 -0.00265085 0)
(0.999381 -0.00252103 0)
(0.999373 -0.00239433 0)
(0.999363 -0.00227086 0)
(0.999349 -0.00215074 0)
(0.999334 -0.00203408 0)
(0.999317 -0.00192093 0)
(0.999299 -0.00181134 0)
(0.999282 -0.00170531 0)
(0.999266 -0.00160285 0)
(0.999251 -0.00150393 0)
(0.999238 -0.00140855 0)
(0.999227 -0.00131667 0)
(0.999217 -0.00122828 0)
(0.999208 -0.00114333 0)
(0.9992 -0.00106178 0)
(0.999193 -0.00098361 0)
(0.999187 -0.000908877 0)
(1.0006 -0.000230059 0)
(1.0006 -0.000818578 0)
(1.00061 -0.00129756 0)
(1.00062 -0.00180892 0)
(1.00063 -0.00230237 0)
(1.00064 -0.0027848 0)
(1.00065 -0.00326028 0)
(1.00066 -0.00372789 0)
(1.00067 -0.00418684 0)
(1.00068 -0.00463616 0)
(1.00069 -0.0050744 0)
(1.00069 -0.00549979 0)
(1.00068 -0.00591041 0)
(1.00067 -0.00630415 0)
(1.00066 -0.00667889 0)
(1.00064 -0.00703247 0)
(1.00062 -0.00736286 0)
(1.00058 -0.00766815 0)
(1.00055 -0.00794664 0)
(1.0005 -0.00819687 0)
(1.00045 -0.00841766 0)
(1.00039 -0.00860816 0)
(1.00033 -0.0087678 0)
(1.00026 -0.00889638 0)
(1.00019 -0.00899398 0)
(1.00011 -0.00906102 0)
(1.00003 -0.00909819 0)
(0.999948 -0.00910645 0)
(0.999862 -0.00908699 0)
(0.999774 -0.00904121 0)
(0.999685 -0.00897072 0)
(0.999595 -0.00887727 0)
(0.999505 -0.00876264 0)
(0.999416 -0.00862866 0)
(0.999328 -0.00847719 0)
(0.999242 -0.0083101 0)
(0.999157 -0.0081293 0)
(0.999075 -0.00793667 0)
(0.998995 -0.00773406 0)
(0.998918 -0.00752323 0)
(0.998843 -0.00730584 0)
(0.998772 -0.00708333 0)
(0.998703 -0.00685702 0)
(0.998638 -0.00662801 0)
(0.998575 -0.00639731 0)
(0.998516 -0.00616582 0)
(0.998459 -0.00593437 0)
(0.998405 -0.00570375 0)
(0.998351 -0.00547473 0)
(0.998299 -0.00524803 0)
(0.998248 -0.00502435 0)
(0.998199 -0.00480436 0)
(0.998154 -0.00458863 0)
(0.998114 -0.00437765 0)
(0.998079 -0.00417182 0)
(0.99805 -0.00397142 0)
(0.998026 -0.00377672 0)
(0.998007 -0.00358788 0)
(0.99799 -0.00340508 0)
(0.997975 -0.00322842 0)
(0.997962 -0.00305798 0)
(0.99795 -0.00289381 0)
(0.997938 -0.0027359 0)
(0.997926 -0.00258424 0)
(0.997915 -0.00243877 0)
(0.997904 -0.00229941 0)
(0.997894 -0.00216606 0)
(0.997884 -0.00203865 0)
(0.997875 -0.00191711 0)
(1.00116 -0.000319763 0)
(1.00116 -0.0011269 0)
(1.00118 -0.00178643 0)
(1.0012 -0.00249456 0)
(1.00122 -0.00317513 0)
(1.00124 -0.00384213 0)
(1.00126 -0.00450067 0)
(1.00128 -0.00514924 0)
(1.0013 -0.00578713 0)
(1.00132 -0.00641314 0)
(1.00133 -0.00702538 0)
(1.00133 -0.00762155 0)
(1.00133 -0.00819904 0)
(1.00132 -0.00875503 0)
(1.00129 -0.00928656 0)
(1.00126 -0.00979068 0)
(1.00121 -0.0102645 0)
(1.00116 -0.0107053 0)
(1.00108 -0.0111106 0)
(1.001 -0.0114782 0)
(1.00091 -0.0118063 0)
(1.0008 -0.0120936 0)
(1.00068 -0.0123389 0)
(1.00056 -0.0125419 0)
(1.00042 -0.0127023 0)
(1.00027 -0.0128205 0)
(1.00012 -0.0128973 0)
(0.999964 -0.0129339 0)
(0.999801 -0.0129316 0)
(0.999635 -0.0128922 0)
(0.999467 -0.0128178 0)
(0.999298 -0.0127106 0)
(0.999129 -0.0125729 0)
(0.998961 -0.0124072 0)
(0.998795 -0.0122159 0)
(0.998632 -0.0120016 0)
(0.998473 -0.0117669 0)
(0.998318 -0.0115141 0)
(0.998168 -0.0112458 0)
(0.998023 -0.010964 0)
(0.997884 -0.0106709 0)
(0.997751 -0.0103686 0)
(0.997623 -0.0100592 0)
(0.997502 -0.0097445 0)
(0.997387 -0.00942649 0)
(0.997277 -0.00910691 0)
(0.997175 -0.00878741 0)
(0.997079 -0.00846944 0)
(0.996992 -0.00815428 0)
(0.996911 -0.00784303 0)
(0.996839 -0.00753655 0)
(0.996772 -0.00723557 0)
(0.99671 -0.00694068 0)
(0.99665 -0.00665236 0)
(0.996591 -0.00637104 0)
(0.996532 -0.00609711 0)
(0.996474 -0.00583086 0)
(0.996417 -0.00557254 0)
(0.996362 -0.00532231 0)
(0.996311 -0.00508029 0)
(0.996263 -0.00484653 0)
(0.996219 -0.00462105 0)
(0.996178 -0.00440383 0)
(0.996142 -0.00419485 0)
(0.996108 -0.00399403 0)
(0.996077 -0.00380129 0)
(0.99605 -0.00361652 0)
(0.996024 -0.00343963 0)
(0.996001 -0.00327058 0)
(1.00182 -0.000405409 0)
(1.00183 -0.0014211 0)
(1.00186 -0.00225683 0)
(1.00188 -0.00315477 0)
(1.00191 -0.00401523 0)
(1.00195 -0.00486128 0)
(1.00199 -0.00569769 0)
(1.00203 -0.00652269 0)
(1.00206 -0.00733587 0)
(1.00209 -0.0081359 0)
(1.00211 -0.00892056 0)
(1.00212 -0.00968709 0)
(1.00212 -0.0104323 0)
(1.0021 -0.0111527 0)
(1.00207 -0.0118447 0)
(1.00202 -0.0125043 0)
(1.00196 -0.013128 0)
(1.00187 -0.0137121 0)
(1.00176 -0.0142534 0)
(1.00164 -0.0147488 0)
(1.0015 -0.0151958 0)
(1.00133 -0.0155923 0)
(1.00115 -0.0159367 0)
(1.00096 -0.0162281 0)
(1.00075 -0.016466 0)
(1.00052 -0.0166505 0)
(1.00029 -0.0167822 0)
(1.00004 -0.0168622 0)
(0.999785 -0.016892 0)
(0.999524 -0.0168737 0)
(0.99926 -0.0168096 0)
(0.998993 -0.0167021 0)
(0.998726 -0.0165544 0)
(0.99846 -0.0163693 0)
(0.998196 -0.01615 0)
(0.997937 -0.0158998 0)
(0.997682 -0.015622 0)
(0.997434 -0.0153196 0)
(0.997192 -0.014996 0)
(0.996958 -0.0146543 0)
(0.996732 -0.0142974 0)
(0.996515 -0.0139283 0)
(0.996306 -0.0135495 0)
(0.996107 -0.0131636 0)
(0.995916 -0.0127727 0)
(0.995734 -0.0123787 0)
(0.995561 -0.0119832 0)
(0.995396 -0.0115879 0)
(0.995239 -0.0111942 0)
(0.995088 -0.0108035 0)
(0.994945 -0.0104169 0)
(0.994808 -0.0100356 0)
(0.99468 -0.00966069 0)
(0.994562 -0.00929312 0)
(0.994454 -0.00893364 0)
(0.994356 -0.00858289 0)
(0.994268 -0.00824136 0)
(0.994188 -0.00790947 0)
(0.994115 -0.00758753 0)
(0.994048 -0.00727579 0)
(0.993986 -0.00697443 0)
(0.993928 -0.00668355 0)
(0.993874 -0.00640323 0)
(0.993823 -0.00613346 0)
(0.993776 -0.0058742 0)
(0.993732 -0.00562536 0)
(0.99369 -0.00538683 0)
(0.993652 -0.00515849 0)
(0.993616 -0.00494026 0)
(1.00256 -0.000486252 0)
(1.00258 -0.00169841 0)
(1.00261 -0.00270288 0)
(1.00265 -0.00378082 0)
(1.0027 -0.00481186 0)
(1.00276 -0.00582902 0)
(1.00282 -0.00683567 0)
(1.00287 -0.00783016 0)
(1.00292 -0.00881256 0)
(1.00297 -0.00978149 0)
(1.00301 -0.0107345 0)
(1.00303 -0.0116685 0)
(1.00303 -0.0125798 0)
(1.00302 -0.0134645 0)
(1.00298 -0.014318 0)
(1.00292 -0.0151359 0)
(1.00284 -0.0159136 0)
(1.00273 -0.0166468 0)
(1.00259 -0.0173312 0)
(1.00242 -0.0179629 0)
(1.00223 -0.0185387 0)
(1.00201 -0.0190555 0)
(1.00176 -0.0195112 0)
(1.00149 -0.0199042 0)
(1.0012 -0.0202333 0)
(1.00088 -0.0204982 0)
(1.00055 -0.0206993 0)
(1.0002 -0.0208375 0)
(0.999841 -0.0209143 0)
(0.99947 -0.0209317 0)
(0.999092 -0.0208923 0)
(0.99871 -0.0207991 0)
(0.998325 -0.0206552 0)
(0.99794 -0.0204642 0)
(0.997558 -0.0202297 0)
(0.99718 -0.0199556 0)
(0.996809 -0.0196455 0)
(0.996445 -0.0193034 0)
(0.996091 -0.018933 0)
(0.995748 -0.0185378 0)
(0.995415 -0.0181215 0)
(0.995095 -0.0176874 0)
(0.994787 -0.0172387 0)
(0.994493 -0.0167784 0)
(0.994212 -0.0163096 0)
(0.993944 -0.0158351 0)
(0.993691 -0.0153576 0)
(0.993452 -0.0148794 0)
(0.993227 -0.0144029 0)
(0.993018 -0.0139297 0)
(0.992823 -0.0134617 0)
(0.992641 -0.0130001 0)
(0.992472 -0.0125461 0)
(0.992312 -0.0121005 0)
(0.992159 -0.0116643 0)
(0.992013 -0.0112381 0)
(0.991874 -0.0108227 0)
(0.991742 -0.0104185 0)
(0.991617 -0.0100261 0)
(0.9915 -0.00964566 0)
(0.991392 -0.00927754 0)
(0.991291 -0.00892186 0)
(0.991198 -0.00857873 0)
(0.991113 -0.00824818 0)
(0.991034 -0.00793019 0)
(0.990961 -0.00762468 0)
(0.990895 -0.00733155 0)
(0.990833 -0.0070507 0)
(0.990776 -0.00678204 0)
(1.00339 -0.000562361 0)
(1.0034 -0.00195714 0)
(1.00345 -0.00311933 0)
(1.00351 -0.00436544 0)
(1.00358 -0.00555617 0)
(1.00365 -0.00673439 0)
(1.00373 -0.00790158 0)
(1.00381 -0.00905664 0)
(1.00389 -0.0102002 0)
(1.00396 -0.0113308 0)
(1.00402 -0.012446 0)
(1.00405 -0.0135425 0)
(1.00407 -0.0146163 0)
(1.00407 -0.0156628 0)
(1.00403 -0.0166771 0)
(1.00397 -0.017654 0)
(1.00387 -0.0185882 0)
(1.00374 -0.0194743 0)
(1.00357 -0.0203074 0)
(1.00336 -0.0210827 0)
(1.00311 -0.0217959 0)
(1.00283 -0.0224432 0)
(1.00251 -0.0230214 0)
(1.00216 -0.0235282 0)
(1.00178 -0.0239619 0)
(1.00137 -0.0243214 0)
(1.00093 -0.0246067 0)
(1.00047 -0.0248182 0)
(0.99999 -0.0249573 0)
(0.999495 -0.0250259 0)
(0.998988 -0.0250265 0)
(0.998473 -0.0249621 0)
(0.997953 -0.0248361 0)
(0.997431 -0.0246522 0)
(0.996912 -0.0244147 0)
(0.996397 -0.0241276 0)
(0.99589 -0.0237955 0)
(0.995392 -0.0234229 0)
(0.994905 -0.0230143 0)
(0.994432 -0.022574 0)
(0.993974 -0.0221065 0)
(0.993531 -0.0216161 0)
(0.993105 -0.0211067 0)
(0.992696 -0.020582 0)
(0.992305 -0.0200456 0)
(0.991931 -0.0195006 0)
(0.991576 -0.0189498 0)
(0.991239 -0.0183958 0)
(0.990918 -0.017841 0)
(0.990614 -0.0172876 0)
(0.990325 -0.0167375 0)
(0.990051 -0.0161928 0)
(0.989793 -0.0156552 0)
(0.989552 -0.0151263 0)
(0.989328 -0.0146075 0)
(0.989122 -0.0140998 0)
(0.988932 -0.0136043 0)
(0.988756 -0.0131216 0)
(0.988594 -0.0126524 0)
(0.988444 -0.0121972 0)
(0.988304 -0.0117562 0)
(0.988174 -0.0113298 0)
(0.988052 -0.0109182 0)
(0.987939 -0.0105214 0)
(0.987833 -0.0101395 0)
(0.987734 -0.00977239 0)
(0.987643 -0.00942002 0)
(0.987557 -0.00908227 0)
(0.987478 -0.00875905 0)
(1.00428 -0.000633767 0)
(1.0043 -0.00219648 0)
(1.00436 -0.00350361 0)
(1.00444 -0.00490522 0)
(1.00453 -0.0062439 0)
(1.00463 -0.00757204 0)
(1.00474 -0.00888908 0)
(1.00485 -0.0101948 0)
(1.00495 -0.0114903 0)
(1.00505 -0.0127743 0)
(1.00513 -0.0140445 0)
(1.00519 -0.0152973 0)
(1.00523 -0.0165286 0)
(1.00524 -0.0177336 0)
(1.00521 -0.0189068 0)
(1.00514 -0.0200423 0)
(1.00504 -0.0211342 0)
(1.00488 -0.0221764 0)
(1.00469 -0.023163 0)
(1.00444 -0.0240882 0)
(1.00415 -0.0249469 0)
(1.0038 -0.0257342 0)
(1.00342 -0.026446 0)
(1.00298 -0.0270791 0)
(1.00251 -0.0276308 0)
(1.00199 -0.0280993 0)
(1.00144 -0.0284838 0)
(1.00086 -0.0287843 0)
(1.00025 -0.0290014 0)
(0.99962 -0.0291367 0)
(0.998971 -0.0291924 0)
(0.99831 -0.0291715 0)
(0.99764 -0.0290775 0)
(0.996966 -0.0289144 0)
(0.996292 -0.0286865 0)
(0.995623 -0.0283986 0)
(0.994961 -0.0280556 0)
(0.99431 -0.0276624 0)
(0.993672 -0.0272242 0)
(0.99305 -0.0267457 0)
(0.992447 -0.0262319 0)
(0.991863 -0.0256876 0)
(0.9913 -0.0251171 0)
(0.990759 -0.024525 0)
(0.990242 -0.0239156 0)
(0.989747 -0.0232929 0)
(0.989277 -0.022661 0)
(0.988831 -0.0220236 0)
(0.988409 -0.0213839 0)
(0.988012 -0.0207452 0)
(0.987639 -0.02011 0)
(0.987289 -0.0194806 0)
(0.986961 -0.018859 0)
(0.986652 -0.0182468 0)
(0.986361 -0.0176453 0)
(0.986084 -0.0170559 0)
(0.985823 -0.0164797 0)
(0.985576 -0.0159176 0)
(0.985345 -0.0153704 0)
(0.985128 -0.0148389 0)
(0.984925 -0.0143234 0)
(0.984738 -0.0138245 0)
(0.984563 -0.0133423 0)
(0.984402 -0.0128771 0)
(0.984252 -0.0124288 0)
(0.984114 -0.0119976 0)
(0.983986 -0.0115833 0)
(0.983868 -0.0111859 0)
(0.983758 -0.0108053 0)
(1.00523 -0.000700204 0)
(1.00526 -0.00241606 0)
(1.00534 -0.00385541 0)
(1.00543 -0.00539978 0)
(1.00554 -0.00687446 0)
(1.00567 -0.00834113 0)
(1.00581 -0.00979713 0)
(1.00595 -0.0112433 0)
(1.00609 -0.0126813 0)
(1.00622 -0.0141101 0)
(1.00633 -0.0155275 0)
(1.00643 -0.0169301 0)
(1.00649 -0.0183137 0)
(1.00651 -0.0196731 0)
(1.0065 -0.0210026 0)
(1.00644 -0.0222959 0)
(1.00633 -0.0235463 0)
(1.00616 -0.0247471 0)
(1.00594 -0.0258914 0)
(1.00566 -0.0269727 0)
(1.00532 -0.0279847 0)
(1.00493 -0.0289216 0)
(1.00447 -0.0297782 0)
(1.00395 -0.0305501 0)
(1.00338 -0.0312335 0)
(1.00276 -0.0318259 0)
(1.0021 -0.0323252 0)
(1.00139 -0.0327306 0)
(1.00064 -0.0330422 0)
(0.999868 -0.0332609 0)
(0.999068 -0.0333885 0)
(0.998248 -0.0334277 0)
(0.997415 -0.0333819 0)
(0.996574 -0.033255 0)
(0.99573 -0.0330516 0)
(0.994888 -0.0327765 0)
(0.994054 -0.032435 0)
(0.993231 -0.0320325 0)
(0.992423 -0.0315746 0)
(0.991633 -0.0310671 0)
(0.990864 -0.0305158 0)
(0.990118 -0.0299264 0)
(0.989397 -0.0293044 0)
(0.988703 -0.0286551 0)
(0.988036 -0.0279837 0)
(0.987398 -0.0272946 0)
(0.986789 -0.0265921 0)
(0.986209 -0.02588 0)
(0.985658 -0.0251618 0)
(0.985135 -0.0244409 0)
(0.984638 -0.0237202 0)
(0.984169 -0.0230028 0)
(0.983725 -0.0222913 0)
(0.983308 -0.0215883 0)
(0.982918 -0.020896 0)
(0.982556 -0.0202163 0)
(0.982219 -0.0195507 0)
(0.981906 -0.0189005 0)
(0.981615 -0.0182668 0)
(0.981344 -0.0176505 0)
(0.981092 -0.0170521 0)
(0.980856 -0.0164723 0)
(0.980636 -0.0159116 0)
(0.980431 -0.01537 0)
(0.98024 -0.0148479 0)
(0.980062 -0.0143454 0)
(0.979897 -0.0138623 0)
(0.979743 -0.0133986 0)
(0.9796 -0.0129544 0)
(1.00622 -0.000761345 0)
(1.00626 -0.00261593 0)
(1.00635 -0.00417562 0)
(1.00646 -0.00585035 0)
(1.0066 -0.00744931 0)
(1.00676 -0.00904332 0)
(1.00694 -0.0106276 0)
(1.00711 -0.0122041 0)
(1.00729 -0.0137751 0)
(1.00746 -0.0153401 0)
(1.00761 -0.0168969 0)
(1.00773 -0.0184426 0)
(1.00782 -0.0199728 0)
(1.00788 -0.0214825 0)
(1.00788 -0.0229655 0)
(1.00784 -0.0244153 0)
(1.00773 -0.0258246 0)
(1.00756 -0.0271861 0)
(1.00733 -0.0284922 0)
(1.00702 -0.0297355 0)
(1.00664 -0.0309085 0)
(1.00619 -0.0320045 0)
(1.00567 -0.033017 0)
(1.00507 -0.0339405 0)
(1.00441 -0.0347701 0)
(1.00369 -0.0355018 0)
(1.00291 -0.0361327 0)
(1.00207 -0.0366608 0)
(1.00119 -0.0370853 0)
(1.00026 -0.0374063 0)
(0.999299 -0.0376249 0)
(0.998312 -0.0377432 0)
(0.997304 -0.0377642 0)
(0.996282 -0.0376915 0)
(0.995254 -0.0375296 0)
(0.994225 -0.0372835 0)
(0.993201 -0.0369587 0)
(0.992188 -0.0365611 0)
(0.99119 -0.0360968 0)
(0.990212 -0.0355722 0)
(0.989257 -0.0349934 0)
(0.988329 -0.0343668 0)
(0.987431 -0.0336982 0)
(0.986564 -0.0329935 0)
(0.98573 -0.0322585 0)
(0.98493 -0.0314985 0)
(0.984166 -0.030719 0)
(0.983438 -0.029925 0)
(0.982746 -0.0291214 0)
(0.982092 -0.0283128 0)
(0.981474 -0.027503 0)
(0.980892 -0.0266958 0)
(0.980345 -0.0258941 0)
(0.979831 -0.0251007 0)
(0.979346 -0.0243179 0)
(0.978889 -0.0235477 0)
(0.978457 -0.022792 0)
(0.978051 -0.0220525 0)
(0.977669 -0.0213305 0)
(0.977312 -0.0206274 0)
(0.976978 -0.0199439 0)
(0.976667 -0.0192809 0)
(0.976377 -0.0186389 0)
(0.976108 -0.0180183 0)
(0.975858 -0.0174194 0)
(0.975626 -0.0168424 0)
(0.97541 -0.0162872 0)
(0.97521 -0.0157539 0)
(0.975025 -0.0152426 0)
(1.00723 -0.000817096 0)
(1.00728 -0.0027967 0)
(1.00738 -0.00446582 0)
(1.00752 -0.00625908 0)
(1.00769 -0.0079711 0)
(1.00788 -0.00968173 0)
(1.00809 -0.011384 0)
(1.00831 -0.013081 0)
(1.00853 -0.0147759 0)
(1.00874 -0.0164685 0)
(1.00893 -0.0181571 0)
(1.00909 -0.019839 0)
(1.00922 -0.0215102 0)
(1.00931 -0.0231655 0)
(1.00934 -0.0247989 0)
(1.00932 -0.0264035 0)
(1.00923 -0.0279717 0)
(1.00906 -0.0294957 0)
(1.00882 -0.0309672 0)
(1.00849 -0.0323778 0)
(1.00809 -0.0337193 0)
(1.00759 -0.0349837 0)
(1.00701 -0.0361635 0)
(1.00635 -0.0372518 0)
(1.0056 -0.0382424 0)
(1.00478 -0.03913 0)
(1.00388 -0.0399105 0)
(1.00291 -0.0405806 0)
(1.00189 -0.0411382 0)
(1.00081 -0.0415823 0)
(0.999685 -0.0419131 0)
(0.998522 -0.0421318 0)
(0.997331 -0.0422408 0)
(0.996119 -0.0422432 0)
(0.994893 -0.0421433 0)
(0.993662 -0.041946 0)
(0.992433 -0.0416568 0)
(0.991213 -0.0412817 0)
(0.990007 -0.0408272 0)
(0.988822 -0.0403001 0)
(0.987662 -0.0397072 0)
(0.986531 -0.0390555 0)
(0.985433 -0.0383523 0)
(0.984371 -0.0376043 0)
(0.983347 -0.0368183 0)
(0.982362 -0.0360007 0)
(0.981419 -0.0351574 0)
(0.980517 -0.0342939 0)
(0.979658 -0.0334153 0)
(0.978841 -0.0325262 0)
(0.978065 -0.0316311 0)
(0.977329 -0.0307341 0)
(0.976633 -0.0298393 0)
(0.975977 -0.0289502 0)
(0.975361 -0.0280704 0)
(0.974784 -0.0272027 0)
(0.974246 -0.0263495 0)
(0.973745 -0.0255131 0)
(0.973278 -0.024695 0)
(0.972842 -0.0238969 0)
(0.972435 -0.0231199 0)
(0.972055 -0.022365 0)
(0.9717 -0.0216332 0)
(0.971368 -0.020925 0)
(0.971059 -0.0202408 0)
(0.970771 -0.0195811 0)
(0.970503 -0.0189459 0)
(0.970254 -0.0183353 0)
(0.970022 -0.0177495 0)
(1.00825 -0.000867681 0)
(1.00831 -0.0029596 0)
(1.00843 -0.00472809 0)
(1.00859 -0.00662881 0)
(1.00879 -0.00844342 0)
(1.00902 -0.0102606 0)
(1.00927 -0.012071 0)
(1.00953 -0.0138793 0)
(1.00979 -0.0156892 0)
(1.01005 -0.0175011 0)
(1.01028 -0.0193138 0)
(1.0105 -0.0211252 0)
(1.01067 -0.0229315 0)
(1.0108 -0.0247277 0)
(1.01087 -0.0265079 0)
(1.01087 -0.0282652 0)
(1.0108 -0.0299918 0)
(1.01065 -0.0316794 0)
(1.01041 -0.0333191 0)
(1.01008 -0.034902 0)
(1.00965 -0.0364188 0)
(1.00912 -0.0378606 0)
(1.0085 -0.0392187 0)
(1.00777 -0.0404848 0)
(1.00694 -0.0416515 0)
(1.00603 -0.0427121 0)
(1.00502 -0.0436609 0)
(1.00393 -0.0444931 0)
(1.00277 -0.0452052 0)
(1.00154 -0.045795 0)
(1.00025 -0.0462613 0)
(0.998905 -0.0466044 0)
(0.997524 -0.0468257 0)
(0.996112 -0.0469276 0)
(0.994679 -0.0469137 0)
(0.993234 -0.0467884 0)
(0.991786 -0.0465571 0)
(0.990342 -0.0462257 0)
(0.988911 -0.045801 0)
(0.9875 -0.0452898 0)
(0.986115 -0.0446998 0)
(0.984761 -0.0440382 0)
(0.983443 -0.0433128 0)
(0.982165 -0.0425309 0)
(0.980929 -0.0416999 0)
(0.97974 -0.0408268 0)
(0.978598 -0.0399188 0)
(0.977505 -0.0389826 0)
(0.976462 -0.0380249 0)
(0.97547 -0.0370518 0)
(0.97453 -0.0360692 0)
(0.973642 -0.0350821 0)
(0.972804 -0.0340953 0)
(0.972014 -0.0331125 0)
(0.971271 -0.0321375 0)
(0.970569 -0.0311734 0)
(0.969908 -0.0302231 0)
(0.969285 -0.0292892 0)
(0.9687 -0.0283742 0)
(0.968151 -0.0274798 0)
(0.967637 -0.0266078 0)
(0.967158 -0.0257596 0)
(0.966711 -0.0249361 0)
(0.966295 -0.0241383 0)
(0.965907 -0.0233667 0)
(0.965547 -0.0226218 0)
(0.965212 -0.0219039 0)
(0.964901 -0.0212132 0)
(0.964612 -0.0205499 0)
(1.00928 -0.000913543 0)
(1.00934 -0.00310624 0)
(1.00948 -0.00496484 0)
(1.00966 -0.00696284 0)
(1.00989 -0.00887042 0)
(1.01016 -0.0107847 0)
(1.01045 -0.0126943 0)
(1.01076 -0.014605 0)
(1.01107 -0.0165215 0)
(1.01137 -0.0184447 0)
(1.01166 -0.0203742 0)
(1.01192 -0.0223082 0)
(1.01215 -0.0242436 0)
(1.01232 -0.0261757 0)
(1.01244 -0.0280988 0)
(1.01248 -0.0300061 0)
(1.01244 -0.0318897 0)
(1.01232 -0.0337412 0)
(1.01209 -0.0355513 0)
(1.01176 -0.0373104 0)
(1.01133 -0.0390086 0)
(1.01078 -0.0406359 0)
(1.01012 -0.0421825 0)
(1.00934 -0.0436391 0)
(1.00845 -0.0449966 0)
(1.00745 -0.0462468 0)
(1.00634 -0.0473826 0)
(1.00514 -0.0483976 0)
(1.00384 -0.0492867 0)
(1.00246 -0.0500461 0)
(1.001 -0.0506732 0)
(0.999482 -0.0511668 0)
(0.997909 -0.051527 0)
(0.996293 -0.0517553 0)
(0.994645 -0.051854 0)
(0.992976 -0.0518272 0)
(0.991296 -0.0516794 0)
(0.989616 -0.0514166 0)
(0.987944 -0.0510452 0)
(0.986289 -0.0505723 0)
(0.98466 -0.0500058 0)
(0.983062 -0.0493535 0)
(0.981502 -0.0486238 0)
(0.979985 -0.0478252 0)
(0.978515 -0.0469662 0)
(0.977096 -0.0460552 0)
(0.97573 -0.0451001 0)
(0.97442 -0.0441085 0)
(0.973166 -0.0430874 0)
(0.97197 -0.0420432 0)
(0.970831 -0.0409821 0)
(0.969749 -0.0399099 0)
(0.968723 -0.038832 0)
(0.967752 -0.0377538 0)
(0.966837 -0.03668 0)
(0.965977 -0.0356149 0)
(0.965172 -0.0345624 0)
(0.964419 -0.0335256 0)
(0.963715 -0.0325073 0)
(0.963058 -0.0315099 0)
(0.962444 -0.0305354 0)
(0.961869 -0.0295857 0)
(0.961333 -0.0286621 0)
(0.960832 -0.0277661 0)
(0.960364 -0.0268983 0)
(0.959928 -0.0260597 0)
(0.959522 -0.0252506 0)
(0.959143 -0.0244715 0)
(0.958791 -0.0237227 0)
(1.0103 -0.000955213 0)
(1.01037 -0.00323835 0)
(1.01053 -0.00517855 0)
(1.01073 -0.00726459 0)
(1.011 -0.0092564 0)
(1.0113 -0.0112593 0)
(1.01163 -0.0132596 0)
(1.01199 -0.0152645 0)
(1.01235 -0.0172796 0)
(1.01271 -0.0193064 0)
(1.01305 -0.0213454 0)
(1.01337 -0.0233954 0)
(1.01365 -0.0254537 0)
(1.01388 -0.0275163 0)
(1.01405 -0.0295779 0)
(1.01414 -0.0316318 0)
(1.01414 -0.0336705 0)
(1.01405 -0.0356853 0)
(1.01386 -0.0376668 0)
(1.01354 -0.039605 0)
(1.01311 -0.0414893 0)
(1.01256 -0.043309 0)
(1.01187 -0.0450533 0)
(1.01106 -0.0467115 0)
(1.01011 -0.0482735 0)
(1.00904 -0.0497294 0)
(1.00785 -0.0510706 0)
(1.00653 -0.0522889 0)
(1.00511 -0.0533775 0)
(1.00359 -0.0543309 0)
(1.00197 -0.0551447 0)
(1.00028 -0.055816 0)
(0.998513 -0.0563434 0)
(0.99669 -0.0567267 0)
(0.994823 -0.0569673 0)
(0.992923 -0.0570681 0)
(0.991003 -0.0570329 0)
(0.989074 -0.0568669 0)
(0.987147 -0.0565763 0)
(0.985233 -0.0561679 0)
(0.98334 -0.0556497 0)
(0.981479 -0.0550297 0)
(0.979656 -0.0543169 0)
(0.977878 -0.05352 0)
(0.976151 -0.0526479 0)
(0.97448 -0.0517096 0)
(0.972868 -0.050714 0)
(0.971318 -0.0496698 0)
(0.969834 -0.0485856 0)
(0.968416 -0.0474697 0)
(0.967066 -0.0463301 0)
(0.965785 -0.0451739 0)
(0.964572 -0.0440078 0)
(0.963426 -0.0428375 0)
(0.962344 -0.0416681 0)
(0.961323 -0.0405044 0)
(0.96036 -0.0393507 0)
(0.959452 -0.0382111 0)
(0.958596 -0.037089 0)
(0.957793 -0.0359877 0)
(0.957041 -0.0349098 0)
(0.956338 -0.0338575 0)
(0.955681 -0.0328328 0)
(0.955068 -0.0318371 0)
(0.954497 -0.0308716 0)
(0.953966 -0.0299373 0)
(0.953471 -0.0290349 0)
(0.953011 -0.0281649 0)
(0.952583 -0.0273279 0)
(1.0113 -0.000993177 0)
(1.01139 -0.00335752 0)
(1.01156 -0.00537157 0)
(1.01179 -0.00753728 0)
(1.01209 -0.0096054 0)
(1.01243 -0.0116891 0)
(1.01281 -0.0137722 0)
(1.01321 -0.0158637 0)
(1.01362 -0.0179699 0)
(1.01404 -0.020093 0)
(1.01445 -0.0222343 0)
(1.01483 -0.0243934 0)
(1.01517 -0.0265684 0)
(1.01546 -0.0287559 0)
(1.01569 -0.030951 0)
(1.01583 -0.0331476 0)
(1.01589 -0.0353383 0)
(1.01585 -0.0375147 0)
(1.01569 -0.0396674 0)
(1.01541 -0.0417861 0)
(1.01499 -0.0438598 0)
(1.01444 -0.0458771 0)
(1.01375 -0.0478265 0)
(1.01291 -0.0496962 0)
(1.01193 -0.0514747 0)
(1.0108 -0.053151 0)
(1.00953 -0.0547145 0)
(1.00813 -0.0561555 0)
(1.00659 -0.0574654 0)
(1.00494 -0.0586365 0)
(1.00317 -0.0596628 0)
(1.00131 -0.0605393 0)
(0.999356 -0.0612628 0)
(0.99733 -0.0618315 0)
(0.995243 -0.0622453 0)
(0.993109 -0.0625053 0)
(0.990941 -0.0626144 0)
(0.988754 -0.0625767 0)
(0.98656 -0.0623975 0)
(0.984372 -0.0620834 0)
(0.982201 -0.0616418 0)
(0.980057 -0.0610812 0)
(0.977951 -0.0604104 0)
(0.97589 -0.059639 0)
(0.973883 -0.0587768 0)
(0.971934 -0.0578341 0)
(0.97005 -0.0568208 0)
(0.968234 -0.0557468 0)
(0.96649 -0.0546213 0)
(0.964819 -0.0534532 0)
(0.963223 -0.0522505 0)
(0.961702 -0.0510211 0)
(0.960255 -0.0497726 0)
(0.958881 -0.0485121 0)
(0.957581 -0.0472464 0)
(0.956355 -0.0459819 0)
(0.955202 -0.0447242 0)
(0.954122 -0.0434779 0)
(0.95311 -0.0422475 0)
(0.952163 -0.0410365 0)
(0.951277 -0.0398482 0)
(0.950448 -0.0386855 0)
(0.949672 -0.0375508 0)
(0.948947 -0.0364463 0)
(0.94827 -0.0353736 0)
(0.947638 -0.0343342 0)
(0.947049 -0.0333289 0)
(0.9465 -0.0323589 0)
(0.945989 -0.0314247 0)
(1.01229 -0.00102779 0)
(1.01239 -0.00346502 0)
(1.01258 -0.00554588 0)
(1.01283 -0.00778365 0)
(1.01316 -0.00992085 0)
(1.01354 -0.012078 0)
(1.01397 -0.0142368 0)
(1.01442 -0.0164076 0)
(1.01489 -0.0185977 0)
(1.01537 -0.02081 0)
(1.01583 -0.0230467 0)
(1.01628 -0.0253082 0)
(1.01669 -0.0275934 0)
(1.01705 -0.0298996 0)
(1.01734 -0.0322226 0)
(1.01755 -0.034557 0)
(1.01767 -0.0368959 0)
(1.01768 -0.039231 0)
(1.01757 -0.0415532 0)
(1.01734 -0.0438522 0)
(1.01696 -0.0461168 0)
(1.01643 -0.0483351 0)
(1.01574 -0.050495 0)
(1.0149 -0.0525837 0)
(1.01389 -0.0545888 0)
(1.01273 -0.0564978 0)
(1.0114 -0.0582986 0)
(1.00992 -0.0599798 0)
(1.00829 -0.0615309 0)
(1.00652 -0.0629425 0)
(1.00461 -0.0642062 0)
(1.00259 -0.0653152 0)
(1.00046 -0.0662641 0)
(0.998232 -0.067049 0)
(0.995928 -0.067668 0)
(0.99356 -0.0681203 0)
(0.991143 -0.0684072 0)
(0.988693 -0.0685313 0)
(0.986224 -0.0684971 0)
(0.983751 -0.06831 0)
(0.981287 -0.067977 0)
(0.978844 -0.0675061 0)
(0.976435 -0.0669061 0)
(0.974071 -0.0661867 0)
(0.97176 -0.065358 0)
(0.96951 -0.0644304 0)
(0.96733 -0.0634145 0)
(0.965223 -0.0623208 0)
(0.963195 -0.06116 0)
(0.961249 -0.0599427 0)
(0.959388 -0.0586794 0)
(0.957614 -0.0573799 0)
(0.955928 -0.0560534 0)
(0.954329 -0.0547081 0)
(0.952817 -0.0533513 0)
(0.951387 -0.05199 0)
(0.950035 -0.0506302 0)
(0.948758 -0.049278 0)
(0.947555 -0.0479387 0)
(0.946422 -0.046617 0)
(0.945359 -0.0453173 0)
(0.944364 -0.0440431 0)
(0.943433 -0.0427974 0)
(0.942565 -0.0415827 0)
(0.941754 -0.0404012 0)
(0.940999 -0.0392545 0)
(0.940295 -0.0381441 0)
(0.93964 -0.0370711 0)
(0.939031 -0.0360366 0)
(1.01326 -0.00105928 0)
(1.01336 -0.00356176 0)
(1.01357 -0.00570299 0)
(1.01385 -0.00800583 0)
(1.01422 -0.0102054 0)
(1.01464 -0.0124292 0)
(1.01511 -0.0146568 0)
(1.01561 -0.0169001 0)
(1.01614 -0.0191671 0)
(1.01668 -0.0214616 0)
(1.01721 -0.0237867 0)
(1.01773 -0.0261438 0)
(1.01821 -0.0285324 0)
(1.01864 -0.0309508 0)
(1.019 -0.0333957 0)
(1.01929 -0.0358623 0)
(1.01948 -0.0383442 0)
(1.01955 -0.0408339 0)
(1.01951 -0.0433225 0)
(1.01932 -0.0457999 0)
(1.01899 -0.0482548 0)
(1.0185 -0.0506754 0)
(1.01784 -0.0530488 0)
(1.017 -0.0553618 0)
(1.016 -0.0576008 0)
(1.01481 -0.0597523 0)
(1.01344 -0.0618028 0)
(1.0119 -0.0637394 0)
(1.01019 -0.0655498 0)
(1.00832 -0.0672223 0)
(1.00629 -0.0687468 0)
(1.00412 -0.0701141 0)
(1.00183 -0.0713166 0)
(0.999413 -0.0723481 0)
(0.996901 -0.0732043 0)
(0.994304 -0.0738826 0)
(0.99164 -0.0743821 0)
(0.988925 -0.0747037 0)
(0.986176 -0.0748502 0)
(0.983409 -0.0748258 0)
(0.980641 -0.0746364 0)
(0.977885 -0.0742892 0)
(0.975157 -0.0737928 0)
(0.972468 -0.0731567 0)
(0.969832 -0.0723914 0)
(0.967257 -0.071508 0)
(0.964753 -0.0705181 0)
(0.962326 -0.0694336 0)
(0.959984 -0.0682661 0)
(0.95773 -0.0670268 0)
(0.955568 -0.0657263 0)
(0.9535 -0.0643751 0)
(0.951525 -0.0629829 0)
(0.949644 -0.0615594 0)
(0.947857 -0.0601143 0)
(0.946166 -0.0586563 0)
(0.944571 -0.0571937 0)
(0.943072 -0.0557335 0)
(0.941665 -0.0542822 0)
(0.940346 -0.0528451 0)
(0.939109 -0.0514274 0)
(0.937951 -0.0500334 0)
(0.936867 -0.0486672 0)
(0.935853 -0.0473321 0)
(0.934905 -0.0460309 0)
(0.934019 -0.044766 0)
(0.933194 -0.0435393 0)
(0.932424 -0.0423526 0)
(0.931707 -0.0412071 0)
(1.0142 -0.00108777 0)
(1.01432 -0.00364834 0)
(1.01454 -0.00584394 0)
(1.01485 -0.00820524 0)
(1.01525 -0.0104607 0)
(1.01571 -0.0127447 0)
(1.01622 -0.0150346 0)
(1.01678 -0.0173438 0)
(1.01736 -0.0196809 0)
(1.01797 -0.0220507 0)
(1.01857 -0.0244573 0)
(1.01915 -0.0269028 0)
(1.01971 -0.0293879 0)
(1.02022 -0.0319116 0)
(1.02066 -0.0344715 0)
(1.02102 -0.0370637 0)
(1.02129 -0.0396828 0)
(1.02145 -0.0423216 0)
(1.02147 -0.044972 0)
(1.02135 -0.0476241 0)
(1.02108 -0.050267 0)
(1.02064 -0.0528888 0)
(1.02002 -0.0554764 0)
(1.01922 -0.0580162 0)
(1.01822 -0.0604939 0)
(1.01703 -0.062895 0)
(1.01565 -0.0652048 0)
(1.01407 -0.067409 0)
(1.0123 -0.0694936 0)
(1.01034 -0.0714451 0)
(1.00822 -0.0732512 0)
(1.00592 -0.0749004 0)
(1.00347 -0.0763829 0)
(1.00089 -0.07769 0)
(0.998176 -0.078815 0)
(0.99536 -0.0797528 0)
(0.992454 -0.0805002 0)
(0.989478 -0.0810559 0)
(0.986448 -0.0814205 0)
(0.983384 -0.0815966 0)
(0.980304 -0.0815885 0)
(0.977224 -0.0814022 0)
(0.974161 -0.0810453 0)
(0.971132 -0.0805268 0)
(0.968149 -0.0798567 0)
(0.965226 -0.079046 0)
(0.962373 -0.0781062 0)
(0.959601 -0.0770495 0)
(0.956918 -0.0758882 0)
(0.95433 -0.0746351 0)
(0.951842 -0.0733032 0)
(0.949458 -0.0719052 0)
(0.947183 -0.0704537 0)
(0.945019 -0.0689599 0)
(0.942964 -0.0674344 0)
(0.941017 -0.0658866 0)
(0.939173 -0.0643254 0)
(0.937428 -0.0627591 0)
(0.93578 -0.0611956 0)
(0.934227 -0.0596422 0)
(0.932766 -0.0581052 0)
(0.931397 -0.0565902 0)
(0.930115 -0.055102 0)
(0.928917 -0.0536445 0)
(0.927799 -0.0522214 0)
(0.926756 -0.0508354 0)
(0.925784 -0.0494891 0)
(0.924879 -0.0481846 0)
(0.924036 -0.0469238 0)
(1.01511 -0.00111339 0)
(1.01524 -0.00372523 0)
(1.01549 -0.00596945 0)
(1.01582 -0.00838288 0)