/*--------------------------------*- C++ -*----------------------------------*\
  =========                 |
  \\      /  F ield         | OpenFOAM: The Open Source CFD Toolbox
   \\    /   O peration     | Website:  https://openfoam.org
    \\  /    A nd           | Version:  10
     \\/     M anipulation  |
\*---------------------------------------------------------------------------*/
FoamFile
{
    format      ascii;
    class       volVectorField;
    location    "290";
    object      U;
}
// * * * * * * * * * * * * * * * * * * * * * * * * * * * * * * * * * * * * * //

dimensions      [0 1 -1 0 0 0 0];

internalField   nonuniform List<vector> 
66268
(
(1 -4.76426e-05 0)
(1 -0.000174719 0)
(1 -0.000278598 0)
(1 -0.000387213 0)
(1 -0.000493158 0)
(1 -0.000597066 0)
(1 -0.000699579 0)
(1 -0.000800698 0)
(1 -0.000900263 0)
(1 -0.000998065 0)
(1 -0.00109382 0)
(1 -0.00118716 0)
(1 -0.00127769 0)
(1 -0.00136497 0)
(1 -0.00144856 0)
(1 -0.00152801 0)
(1 -0.00160289 0)
(1 -0.00167279 0)
(1 -0.00173737 0)
(1 -0.00179631 0)
(1 -0.00184935 0)
(1 -0.00189631 0)
(1 -0.00193707 0)
(1 -0.00197156 0)
(1 -0.00199981 0)
(1 -0.00202187 0)
(1 -0.00203789 0)
(1 -0.00204804 0)
(1 -0.00205255 0)
(1 -0.00205169 0)
(1 -0.00204575 0)
(1 -0.00203507 0)
(1 -0.00201998 0)
(1 -0.00200086 0)
(1 -0.00197809 0)
(1 -0.00195206 0)
(1 -0.0019232 0)
(1 -0.00189189 0)
(1 -0.00185852 0)
(1 -0.00182342 0)
(1 -0.00178686 0)
(1 -0.0017491 0)
(0.999999 -0.00171029 0)
(0.999999 -0.00167061 0)
(0.999998 -0.00163019 0)
(0.999997 -0.00158917 0)
(0.999995 -0.00154769 0)
(0.999991 -0.00150592 0)
(0.999984 -0.00146405 0)
(0.999976 -0.00142231 0)
(0.999965 -0.00138093 0)
(0.999954 -0.00134016 0)
(0.999944 -0.00130019 0)
(0.999937 -0.00126116 0)
(0.999932 -0.00122314 0)
(0.999932 -0.00118619 0)
(0.999934 -0.00115032 0)
(0.999939 -0.00111555 0)
(0.999945 -0.00108191 0)
(0.999952 -0.00104941 0)
(0.999959 -0.00101808 0)
(0.999965 -0.000987939 0)
(0.99997 -0.000959002 0)
(0.999974 -0.000931268 0)
(0.999978 -0.00090473 0)
(0.999981 -0.000879369 0)
(0.999983 -0.000855161 0)
(0.999985 -0.000832116 0)
(0.999987 -0.000810239 0)
(1.00021 -0.000141083 0)
(1.0002 -0.000509495 0)
(1.00021 -0.000810195 0)
(1.00021 -0.00112821 0)
(1.00022 -0.00143741 0)
(1.00022 -0.0017409 0)
(1.00023 -0.00204092 0)
(1.00023 -0.00233729 0)
(1.00024 -0.00262959 0)
(1.00024 -0.00291724 0)
(1.00024 -0.00319942 0)
(1.00025 -0.00347508 0)
(1.00025 -0.00374303 0)
(1.00025 -0.00400199 0)
(1.00024 -0.00425061 0)
(1.00024 -0.00448756 0)
(1.00023 -0.00471153 0)
(1.00023 -0.0049213 0)
(1.00022 -0.00511574 0)
(1.0002 -0.0052939 0)
(1.00019 -0.00545497 0)
(1.00017 -0.00559833 0)
(1.00016 -0.00572355 0)
(1.00014 -0.0058304 0)
(1.00011 -0.00591884 0)
(1.00009 -0.00598902 0)
(1.00007 -0.00604127 0)
(1.00004 -0.00607608 0)
(1.00001 -0.00609408 0)
(0.999985 -0.00609604 0)
(0.999956 -0.00608283 0)
(0.999928 -0.00605546 0)
(0.999899 -0.00601498 0)
(0.99987 -0.00596247 0)
(0.999841 -0.00589897 0)
(0.999812 -0.0058255 0)
(0.999784 -0.00574302 0)
(0.999756 -0.00565248 0)
(0.999729 -0.00555476 0)
(0.999703 -0.00545079 0)
(0.999677 -0.0053415 0)
(0.999652 -0.00522786 0)
(0.999627 -0.00511086 0)
(0.999603 -0.00499147 0)
(0.99958 -0.00487059 0)
(0.999557 -0.00474906 0)
(0.999537 -0.00462758 0)
(0.999518 -0.00450675 0)
(0.999503 -0.00438702 0)
(0.999492 -0.00426874 0)
(0.999483 -0.00415213 0)
(0.999477 -0.00403733 0)
(0.999472 -0.0039245 0)
(0.999465 -0.00381377 0)
(0.999455 -0.00370532 0)
(0.999442 -0.00359935 0)
(0.999426 -0.00349603 0)
(0.999409 -0.00339548 0)
(0.999391 -0.00329781 0)
(0.999373 -0.00320308 0)
(0.999356 -0.00311133 0)
(0.99934 -0.00302256 0)
(0.999326 -0.00293678 0)
(0.999314 -0.00285399 0)
(0.999303 -0.00277418 0)
(0.999293 -0.00269733 0)
(0.999284 -0.00262342 0)
(0.999277 -0.00255244 0)
(0.99927 -0.00248446 0)
(1.00062 -0.000230096 0)
(1.00061 -0.00081949 0)
(1.00063 -0.00130057 0)
(1.00064 -0.00181496 0)
(1.00065 -0.00231316 0)
(1.00066 -0.00280297 0)
(1.00068 -0.00328833 0)
(1.0007 -0.00376869 0)
(1.00071 -0.00424348 0)
(1.00072 -0.00471191 0)
(1.00073 -0.00517267 0)
(1.00074 -0.00562408 0)
(1.00075 -0.00606425 0)
(1.00075 -0.00649107 0)
(1.00074 -0.00690234 0)
(1.00073 -0.00729583 0)
(1.00071 -0.00766933 0)
(1.00069 -0.00802076 0)
(1.00066 -0.00834818 0)
(1.00063 -0.00864989 0)
(1.00058 -0.00892442 0)
(1.00054 -0.00917062 0)
(1.00048 -0.00938763 0)
(1.00042 -0.0095749 0)
(1.00036 -0.00973223 0)
(1.00029 -0.00985973 0)
(1.00022 -0.0099578 0)
(1.00014 -0.0100271 0)
(1.00006 -0.0100687 0)
(0.999979 -0.0100836 0)
(0.999896 -0.0100732 0)
(0.999812 -0.0100389 0)
(0.999727 -0.00998242 0)
(0.999642 -0.00990534 0)
(0.999558 -0.00980934 0)
(0.999475 -0.00969619 0)
(0.999394 -0.00956767 0)
(0.999314 -0.00942565 0)
(0.999237 -0.00927195 0)
(0.999161 -0.00910834 0)
(0.999088 -0.00893645 0)
(0.999017 -0.00875774 0)
(0.998948 -0.00857346 0)
(0.998883 -0.00838473 0)
(0.998819 -0.00819249 0)
(0.998759 -0.00799763 0)
(0.9987 -0.00780097 0)
(0.998644 -0.00760334 0)
(0.998588 -0.00740552 0)
(0.998533 -0.00720832 0)
(0.998478 -0.00701254 0)
(0.998425 -0.00681894 0)
(0.998375 -0.00662821 0)
(0.99833 -0.00644093 0)
(0.998291 -0.00625756 0)
(0.998259 -0.00607842 0)
(0.998232 -0.00590378 0)
(0.99821 -0.00573386 0)
(0.998191 -0.00556884 0)
(0.998174 -0.00540887 0)
(0.998159 -0.00525409 0)
(0.998145 -0.00510459 0)
(0.998131 -0.00496043 0)
(0.998118 -0.00482164 0)
(0.998104 -0.00468822 0)
(0.998092 -0.00456014 0)
(0.998079 -0.00443734 0)
(0.998067 -0.00431981 0)
(0.998056 -0.00420749 0)
(1.00116 -0.000312697 0)
(1.00117 -0.00110348 0)
(1.00119 -0.00175159 0)
(1.00121 -0.00244868 0)
(1.00123 -0.00312162 0)
(1.00126 -0.0037852 0)
(1.00129 -0.00444429 0)
(1.00133 -0.00509794 0)
(1.00136 -0.00574575 0)
(1.00138 -0.00638679 0)
(1.00141 -0.00701936 0)
(1.00142 -0.00764126 0)
(1.00143 -0.00824995 0)
(1.00144 -0.00884258 0)
(1.00143 -0.00941612 0)
(1.00141 -0.00996744 0)
(1.00138 -0.0104934 0)
(1.00134 -0.010991 0)
(1.00129 -0.0114575 0)
(1.00123 -0.0118902 0)
(1.00115 -0.0122869 0)
(1.00106 -0.0126458 0)
(1.00096 -0.0129655 0)
(1.00085 -0.0132448 0)
(1.00073 -0.0134833 0)
(1.0006 -0.0136808 0)
(1.00046 -0.0138375 0)
(1.00032 -0.0139543 0)
(1.00017 -0.0140321 0)
(1.00001 -0.0140724 0)
(0.999853 -0.0140766 0)
(0.999694 -0.0140468 0)
(0.999533 -0.0139851 0)
(0.999373 -0.0138937 0)
(0.999213 -0.013775 0)
(0.999055 -0.0136315 0)
(0.9989 -0.0134655 0)
(0.998749 -0.0132795 0)
(0.998601 -0.0130756 0)
(0.998457 -0.012856 0)
(0.998318 -0.0126226 0)
(0.998184 -0.0123776 0)
(0.998056 -0.0121228 0)
(0.997932 -0.0118604 0)
(0.997814 -0.0115921 0)
(0.997702 -0.0113199 0)
(0.997596 -0.0110455 0)
(0.997497 -0.0107703 0)
(0.997404 -0.0104956 0)
(0.99732 -0.0102227 0)
(0.997243 -0.00995235 0)
(0.997174 -0.00968533 0)
(0.997108 -0.00942229 0)
(0.997046 -0.00916381 0)
(0.996984 -0.00891046 0)
(0.996921 -0.00866277 0)
(0.996859 -0.00842119 0)
(0.996798 -0.0081861 0)
(0.996738 -0.00795779 0)
(0.996681 -0.00773645 0)
(0.996628 -0.0075222 0)
(0.996578 -0.00731511 0)
(0.996532 -0.00711523 0)
(0.99649 -0.00692254 0)
(0.996452 -0.00673704 0)
(0.996416 -0.00655868 0)
(0.996383 -0.0063874 0)
(0.996353 -0.00622316 0)
(0.996325 -0.00606594 0)
(1.0018 -0.000387945 0)
(1.00181 -0.0013622 0)
(1.00185 -0.00216625 0)
(1.00188 -0.00303213 0)
(1.00192 -0.00386619 0)
(1.00197 -0.00469174 0)
(1.00202 -0.00551336 0)
(1.00207 -0.00633001 0)
(1.00212 -0.00714173 0)
(1.00217 -0.00794751 0)
(1.00221 -0.00874536 0)
(1.00224 -0.00953272 0)
(1.00226 -0.0103065 0)
(1.00227 -0.0110631 0)
(1.00226 -0.0117989 0)
(1.00224 -0.0125097 0)
(1.0022 -0.0131915 0)
(1.00215 -0.0138405 0)
(1.00207 -0.0144527 0)
(1.00198 -0.0150247 0)
(1.00186 -0.0155534 0)
(1.00173 -0.016036 0)
(1.00157 -0.0164704 0)
(1.00141 -0.0168548 0)
(1.00122 -0.0171881 0)
(1.00102 -0.0174697 0)
(1.0008 -0.0176997 0)
(1.00058 -0.0178786 0)
(1.00034 -0.0180073 0)
(1.0001 -0.0180874 0)
(0.999852 -0.0181208 0)
(0.999599 -0.0181097 0)
(0.999344 -0.0180565 0)
(0.999088 -0.0179642 0)
(0.998833 -0.0178354 0)
(0.99858 -0.0176731 0)
(0.998331 -0.0174804 0)
(0.998087 -0.0172602 0)
(0.997848 -0.0170155 0)
(0.997616 -0.0167496 0)
(0.997391 -0.0164654 0)
(0.997173 -0.0161658 0)
(0.996963 -0.0158535 0)
(0.99676 -0.0155309 0)
(0.996566 -0.0152002 0)
(0.99638 -0.0148634 0)
(0.996201 -0.0145222 0)
(0.99603 -0.0141781 0)
(0.995864 -0.0138328 0)
(0.995705 -0.0134876 0)
(0.995551 -0.013144 0)
(0.995404 -0.0128034 0)
(0.995265 -0.0124669 0)
(0.995135 -0.0121358 0)
(0.995016 -0.0118107 0)
(0.994909 -0.0114923 0)
(0.994813 -0.0111813 0)
(0.994727 -0.010878 0)
(0.994648 -0.0105828 0)
(0.994575 -0.010296 0)
(0.994507 -0.010018 0)
(0.994443 -0.00974895 0)
(0.994383 -0.009489 0)
(0.994326 -0.00923826 0)
(0.994273 -0.00899679 0)
(0.994222 -0.00876458 0)
(0.994175 -0.00854158 0)
(0.99413 -0.00832777 0)
(0.994088 -0.00812309 0)
(1.00251 -0.000456729 0)
(1.00253 -0.00159863 0)
(1.00257 -0.00254788 0)
(1.00262 -0.00356934 0)
(1.00268 -0.00455213 0)
(1.00275 -0.00552855 0)
(1.00283 -0.00650201 0)
(1.00291 -0.0074718 0)
(1.00298 -0.00843855 0)
(1.00305 -0.00940123 0)
(1.00312 -0.0103577 0)
(1.00317 -0.0113053 0)
(1.00321 -0.0122403 0)
(1.00323 -0.0131587 0)
(1.00324 -0.014056 0)
(1.00322 -0.0149275 0)
(1.00317 -0.0157681 0)
(1.0031 -0.016573 0)
(1.00301 -0.0173374 0)
(1.00288 -0.0180568 0)
(1.00273 -0.0187271 0)
(1.00255 -0.0193445 0)
(1.00234 -0.0199059 0)
(1.00211 -0.0204089 0)
(1.00185 -0.0208516 0)
(1.00157 -0.0212327 0)
(1.00127 -0.0215519 0)
(1.00095 -0.0218092 0)
(1.00062 -0.0220055 0)
(1.00027 -0.0221421 0)
(0.999918 -0.022221 0)
(0.999555 -0.0222445 0)
(0.999188 -0.0222152 0)
(0.998818 -0.0221362 0)
(0.998449 -0.0220108 0)
(0.998081 -0.0218424 0)
(0.997718 -0.0216347 0)
(0.997361 -0.0213915 0)
(0.997011 -0.0211164 0)
(0.996669 -0.020813 0)
(0.996337 -0.0204847 0)
(0.996015 -0.0201348 0)
(0.995704 -0.0197666 0)
(0.995405 -0.0193832 0)
(0.995118 -0.0189876 0)
(0.994843 -0.0185826 0)
(0.99458 -0.0181712 0)
(0.994331 -0.0177557 0)
(0.994096 -0.0173385 0)
(0.993876 -0.0169214 0)
(0.993672 -0.0165062 0)
(0.993482 -0.0160942 0)
(0.993304 -0.0156866 0)
(0.993135 -0.0152845 0)
(0.992974 -0.0148889 0)
(0.992819 -0.0145007 0)
(0.992668 -0.0141209 0)
(0.992524 -0.0137503 0)
(0.992386 -0.0133894 0)
(0.992256 -0.0130387 0)
(0.992134 -0.0126986 0)
(0.992021 -0.0123692 0)
(0.991916 -0.0120509 0)
(0.991818 -0.0117435 0)
(0.991728 -0.0114473 0)
(0.991644 -0.0111622 0)
(0.991567 -0.0108882 0)
(0.991495 -0.0106253 0)
(0.991428 -0.0103733 0)
(1.00328 -0.000520398 0)
(1.00331 -0.0018156 0)
(1.00336 -0.00289858 0)
(1.00343 -0.00406316 0)
(1.00351 -0.00518315 0)
(1.00361 -0.00629962 0)
(1.00372 -0.00741442 0)
(1.00383 -0.00852758 0)
(1.00393 -0.00964033 0)
(1.00404 -0.0107518 0)
(1.00413 -0.0118598 0)
(1.00422 -0.0129616 0)
(1.00428 -0.0140533 0)
(1.00432 -0.0151303 0)
(1.00434 -0.0161877 0)
(1.00433 -0.01722 0)
(1.00429 -0.0182213 0)
(1.00421 -0.019186 0)
(1.0041 -0.0201082 0)
(1.00395 -0.0209824 0)
(1.00376 -0.0218035 0)
(1.00354 -0.0225666 0)
(1.00327 -0.0232676 0)
(1.00298 -0.023903 0)
(1.00264 -0.0244701 0)
(1.00228 -0.0249668 0)
(1.00189 -0.0253919 0)
(1.00147 -0.0257451 0)
(1.00102 -0.0260265 0)
(1.00056 -0.0262373 0)
(1.00009 -0.0263791 0)
(0.999599 -0.0264541 0)
(0.999102 -0.0264654 0)
(0.998601 -0.026416 0)
(0.998098 -0.0263098 0)
(0.997597 -0.0261507 0)
(0.997099 -0.0259427 0)
(0.996609 -0.0256902 0)
(0.996127 -0.0253973 0)
(0.995655 -0.0250684 0)
(0.995196 -0.0247077 0)
(0.994751 -0.0243194 0)
(0.99432 -0.0239076 0)
(0.993904 -0.0234761 0)
(0.993505 -0.0230283 0)
(0.993122 -0.0225675 0)
(0.992755 -0.0220966 0)
(0.992405 -0.0216183 0)
(0.992069 -0.0211351 0)
(0.991747 -0.0206494 0)
(0.991439 -0.0201634 0)
(0.991144 -0.0196794 0)
(0.990864 -0.0191992 0)
(0.990602 -0.0187247 0)
(0.990358 -0.0182572 0)
(0.990133 -0.0177979 0)
(0.989927 -0.0173476 0)
(0.989738 -0.0169073 0)
(0.989563 -0.0164775 0)
(0.9894 -0.016059 0)
(0.989249 -0.0156523 0)
(0.989106 -0.0152579 0)
(0.988972 -0.0148761 0)
(0.988847 -0.0145071 0)
(0.988729 -0.0141513 0)
(0.988618 -0.0138085 0)
(0.988514 -0.0134789 0)
(0.988416 -0.0131625 0)
(0.988326 -0.0128592 0)
(1.0041 -0.000579542 0)
(1.00413 -0.00201407 0)
(1.00421 -0.00321842 0)
(1.00429 -0.00451373 0)
(1.0044 -0.00575936 0)
(1.00453 -0.00700474 0)
(1.00467 -0.00825001 0)
(1.00482 -0.00949625 0)
(1.00497 -0.0107453 0)
(1.00511 -0.0119966 0)
(1.00524 -0.0132482 0)
(1.00536 -0.0144972 0)
(1.00546 -0.0157398 0)
(1.00553 -0.0169711 0)
(1.00557 -0.0181858 0)
(1.00558 -0.0193777 0)
(1.00555 -0.0205405 0)
(1.00547 -0.0216675 0)
(1.00535 -0.0227522 0)
(1.00518 -0.0237878 0)
(1.00496 -0.0247681 0)
(1.0047 -0.0256872 0)
(1.00438 -0.02654 0)
(1.00402 -0.0273216 0)
(1.00361 -0.0280283 0)
(1.00316 -0.028657 0)
(1.00266 -0.0292055 0)
(1.00214 -0.0296726 0)
(1.00158 -0.0300578 0)
(1.00099 -0.0303617 0)
(1.00038 -0.0305856 0)
(0.999757 -0.0307316 0)
(0.999118 -0.0308023 0)
(0.99847 -0.030801 0)
(0.997817 -0.0307315 0)
(0.997164 -0.0305979 0)
(0.996515 -0.0304046 0)
(0.995872 -0.0301563 0)
(0.99524 -0.0298576 0)
(0.994621 -0.0295135 0)
(0.994016 -0.0291287 0)
(0.993428 -0.0287078 0)
(0.992859 -0.0282556 0)
(0.99231 -0.0277763 0)
(0.991781 -0.0272745 0)
(0.991274 -0.0267544 0)
(0.990789 -0.0262202 0)
(0.990326 -0.0256758 0)
(0.989888 -0.0251247 0)
(0.989474 -0.0245701 0)
(0.989085 -0.0240147 0)
(0.98872 -0.0234608 0)
(0.988377 -0.0229102 0)
(0.988053 -0.0223646 0)
(0.987744 -0.0218256 0)
(0.987449 -0.0212949 0)
(0.987165 -0.0207739 0)
(0.986895 -0.0202638 0)
(0.986639 -0.0197656 0)
(0.986397 -0.0192802 0)
(0.986171 -0.0188082 0)
(0.98596 -0.0183502 0)
(0.985764 -0.0179064 0)
(0.985582 -0.0174771 0)
(0.985412 -0.0170627 0)
(0.985255 -0.0166631 0)
(0.985109 -0.0162784 0)
(0.984973 -0.0159087 0)
(0.984846 -0.0155541 0)
(1.00497 -0.000633882 0)
(1.005 -0.00219333 0)
(1.00509 -0.0035063 0)
(1.0052 -0.00491958 0)
(1.00534 -0.00627876 0)
(1.00551 -0.0076412 0)
(1.00568 -0.00900538 0)
(1.00587 -0.0103736 0)
(1.00606 -0.0117484 0)
(1.00625 -0.0131296 0)
(1.00643 -0.0145155 0)
(1.00659 -0.0159036 0)
(1.00673 -0.01729 0)
(1.00684 -0.0186699 0)
(1.00691 -0.0200376 0)
(1.00694 -0.0213867 0)
(1.00693 -0.0227103 0)
(1.00686 -0.0240009 0)
(1.00674 -0.0252512 0)
(1.00656 -0.0264535 0)
(1.00632 -0.0276006 0)
(1.00601 -0.0286853 0)
(1.00565 -0.0297012 0)
(1.00522 -0.0306423 0)
(1.00474 -0.0315036 0)
(1.0042 -0.0322809 0)
(1.00361 -0.0329706 0)
(1.00298 -0.0335706 0)
(1.0023 -0.0340796 0)
(1.00158 -0.0344971 0)
(1.00083 -0.0348237 0)
(1.00006 -0.035061 0)
(0.999263 -0.0352112 0)
(0.998456 -0.0352773 0)
(0.99764 -0.0352631 0)
(0.996821 -0.0351729 0)
(0.996004 -0.0350112 0)
(0.995193 -0.0347833 0)
(0.994392 -0.0344945 0)
(0.993605 -0.0341502 0)
(0.992836 -0.0337561 0)
(0.992085 -0.0333177 0)
(0.991357 -0.0328406 0)
(0.990653 -0.0323301 0)
(0.989973 -0.0317913 0)
(0.98932 -0.0312289 0)
(0.988694 -0.0306472 0)
(0.988095 -0.0300503 0)
(0.987523 -0.0294417 0)
(0.986975 -0.0288249 0)
(0.986451 -0.0282032 0)
(0.98595 -0.0275799 0)
(0.985473 -0.0269578 0)
(0.985022 -0.0263397 0)
(0.9846 -0.0257278 0)
(0.984208 -0.025124 0)
(0.983845 -0.0245299 0)
(0.983509 -0.0239468 0)
(0.983196 -0.0233758 0)
(0.982904 -0.0228181 0)
(0.982631 -0.0222747 0)
(0.982375 -0.0217463 0)
(0.982134 -0.0212337 0)
(0.981908 -0.0207374 0)
(0.981696 -0.0202577 0)
(0.981498 -0.0197948 0)
(0.981312 -0.0193491 0)
(0.981139 -0.0189205 0)
(0.980976 -0.018509 0)
(1.00586 -0.000682785 0)
(1.00591 -0.00235241 0)
(1.00601 -0.00376152 0)
(1.00615 -0.00527971 0)
(1.00632 -0.00673992 0)
(1.00652 -0.00820713 0)
(1.00674 -0.00967819 0)
(1.00697 -0.0111568 0)
(1.00721 -0.012646 0)
(1.00745 -0.0141463 0)
(1.00768 -0.0156565 0)
(1.00789 -0.0171745 0)
(1.00807 -0.0186966 0)
(1.00823 -0.0202181 0)
(1.00834 -0.0217334 0)
(1.00841 -0.0232357 0)
(1.00842 -0.0247177 0)
(1.00837 -0.0261717 0)
(1.00825 -0.0275894 0)
(1.00807 -0.0289624 0)
(1.00782 -0.0302823 0)
(1.00749 -0.0315409 0)
(1.00708 -0.0327304 0)
(1.0066 -0.0338437 0)
(1.00605 -0.0348742 0)
(1.00543 -0.0358162 0)
(1.00474 -0.0366652 0)
(1.004 -0.0374174 0)
(1.0032 -0.0380703 0)
(1.00235 -0.0386223 0)
(1.00145 -0.0390731 0)
(1.00053 -0.0394234 0)
(0.99957 -0.0396748 0)
(0.998593 -0.0398299 0)
(0.997601 -0.0398924 0)
(0.996602 -0.0398662 0)
(0.995601 -0.0397563 0)
(0.994605 -0.0395678 0)
(0.993618 -0.0393064 0)
(0.992645 -0.0389778 0)
(0.991691 -0.038588 0)
(0.990759 -0.038143 0)
(0.989853 -0.0376488 0)
(0.988974 -0.0371111 0)
(0.988126 -0.0365357 0)
(0.98731 -0.0359283 0)
(0.986527 -0.0352947 0)
(0.985779 -0.0346401 0)
(0.985066 -0.0339698 0)
(0.984389 -0.0332885 0)
(0.98375 -0.0326003 0)
(0.983149 -0.0319088 0)
(0.982581 -0.031217 0)
(0.982044 -0.0305275 0)
(0.981534 -0.0298428 0)
(0.981046 -0.0291654 0)
(0.980581 -0.0284974 0)
(0.980137 -0.027841 0)
(0.979717 -0.0271977 0)
(0.979322 -0.0265689 0)
(0.978951 -0.0259558 0)
(0.978604 -0.0253591 0)
(0.978282 -0.0247795 0)
(0.977981 -0.0242178 0)
(0.977701 -0.0236741 0)
(0.97744 -0.023149 0)
(0.977197 -0.0226427 0)
(0.976971 -0.0221552 0)
(0.976761 -0.0216868 0)
(1.00677 -0.000725878 0)
(1.00683 -0.0024912 0)
(1.00695 -0.00398476 0)
(1.00711 -0.00559506 0)
(1.00731 -0.00714389 0)
(1.00755 -0.00870366 0)
(1.00781 -0.0102696 0)
(1.00809 -0.0118468 0)
(1.00839 -0.013439 0)
(1.00868 -0.0150473 0)
(1.00896 -0.0166713 0)
(1.00923 -0.0183092 0)
(1.00947 -0.019958 0)
(1.00968 -0.0216133 0)
(1.00984 -0.0232693 0)
(1.00995 -0.0249196 0)
(1.01 -0.0265567 0)
(1.00998 -0.0281723 0)
(1.00988 -0.0297576 0)
(1.00971 -0.0313036 0)
(1.00945 -0.0328009 0)
(1.0091 -0.0342402 0)
(1.00867 -0.0356126 0)
(1.00815 -0.0369094 0)
(1.00754 -0.0381227 0)
(1.00684 -0.0392453 0)
(1.00607 -0.0402709 0)
(1.00522 -0.0411944 0)
(1.0043 -0.0420117 0)
(1.00331 -0.04272 0)
(1.00227 -0.0433176 0)
(1.00119 -0.0438042 0)
(1.00006 -0.0441805 0)
(0.998909 -0.0444484 0)
(0.997731 -0.0446108 0)
(0.99654 -0.0446714 0)
(0.995342 -0.0446348 0)
(0.994145 -0.0445063 0)
(0.992955 -0.0442917 0)
(0.991779 -0.0439971 0)
(0.990622 -0.0436293 0)
(0.989489 -0.043195 0)
(0.988384 -0.0427011 0)
(0.987311 -0.0421547 0)
(0.986272 -0.0415623 0)
(0.98527 -0.0409306 0)
(0.984307 -0.0402655 0)
(0.983383 -0.0395725 0)
(0.982498 -0.0388566 0)
(0.981652 -0.0381228 0)
(0.980842 -0.0373755 0)
(0.980068 -0.0366192 0)
(0.979329 -0.0358582 0)
(0.978629 -0.0350967 0)
(0.977969 -0.0343381 0)
(0.977353 -0.0335855 0)
(0.976779 -0.0328413 0)
(0.976245 -0.0321076 0)
(0.975747 -0.0313864 0)
(0.975281 -0.0306795 0)
(0.974843 -0.0299883 0)
(0.974433 -0.0293144 0)
(0.974047 -0.0286588 0)
(0.973685 -0.0280225 0)
(0.973345 -0.0274061 0)
(0.973027 -0.0268102 0)
(0.972729 -0.0262351 0)
(0.972451 -0.0256813 0)
(0.972191 -0.0251488 0)
(1.00767 -0.000763387 0)
(1.00774 -0.00261098 0)
(1.00788 -0.00417822 0)
(1.00807 -0.00586858 0)
(1.00831 -0.00749437 0)
(1.00859 -0.00913513 0)
(1.0089 -0.0107845 0)
(1.00923 -0.0124488 0)
(1.00957 -0.0141327 0)
(1.00992 -0.0158381 0)
(1.01027 -0.0175652 0)
(1.0106 -0.019313 0)
(1.0109 -0.0210791 0)
(1.01117 -0.0228593 0)
(1.01139 -0.0246486 0)
(1.01155 -0.0264406 0)
(1.01165 -0.0282278 0)
(1.01167 -0.0300018 0)
(1.01161 -0.0317535 0)
(1.01145 -0.0334732 0)
(1.01121 -0.0351508 0)
(1.01086 -0.0367761 0)
(1.01041 -0.0383388 0)
(1.00985 -0.0398291 0)
(1.0092 -0.0412374 0)
(1.00844 -0.042555 0)
(1.00758 -0.043774 0)
(1.00664 -0.0448874 0)
(1.0056 -0.0458897 0)
(1.00449 -0.0467762 0)
(1.00331 -0.0475439 0)
(1.00206 -0.0481909 0)
(1.00077 -0.0487166 0)
(0.999429 -0.0491218 0)
(0.998059 -0.0494085 0)
(0.996666 -0.0495799 0)
(0.995259 -0.0496399 0)
(0.993848 -0.0495938 0)
(0.992441 -0.0494473 0)
(0.991045 -0.0492067 0)
(0.989668 -0.0488787 0)
(0.988315 -0.0484706 0)
(0.986992 -0.0479893 0)
(0.985704 -0.0474422 0)
(0.984454 -0.0468364 0)
(0.983247 -0.0461792 0)
(0.982085 -0.0454777 0)
(0.98097 -0.0447392 0)
(0.979903 -0.0439705 0)
(0.978886 -0.0431784 0)
(0.977921 -0.0423689 0)
(0.977008 -0.0415473 0)
(0.976145 -0.0407183 0)
(0.975328 -0.0398857 0)
(0.974552 -0.0390534 0)
(0.973812 -0.0382247 0)
(0.973106 -0.0374031 0)
(0.972434 -0.0365917 0)
(0.971798 -0.035793 0)
(0.971199 -0.0350092 0)
(0.970636 -0.0342421 0)
(0.97011 -0.0334932 0)
(0.969619 -0.0327636 0)
(0.96916 -0.0320545 0)
(0.968733 -0.0313667 0)
(0.968334 -0.0307007 0)
(0.967962 -0.0300572 0)
(0.967616 -0.0294366 0)
(0.967293 -0.0288392 0)
(1.00857 -0.000795998 0)
(1.00865 -0.00271399 0)
(1.00881 -0.00434509 0)
(1.00902 -0.00610465 0)
(1.0093 -0.00779689 0)
(1.00962 -0.00950808 0)
(1.00997 -0.0112302 0)
(1.01036 -0.0129711 0)
(1.01076 -0.014736 0)
(1.01117 -0.0165278 0)
(1.01158 -0.0183477 0)
(1.01198 -0.0201953 0)
(1.01235 -0.0220688 0)
(1.01268 -0.0239651 0)
(1.01297 -0.0258793 0)
(1.0132 -0.0278057 0)
(1.01335 -0.0297369 0)
(1.01343 -0.0316647 0)
(1.01341 -0.0335798 0)
(1.01329 -0.0354721 0)
(1.01307 -0.0373311 0)
(1.01274 -0.0391455 0)
(1.01228 -0.0409042 0)
(1.01171 -0.0425959 0)
(1.01102 -0.0442098 0)
(1.01021 -0.0457354 0)
(1.00929 -0.0471631 0)
(1.00826 -0.0484842 0)
(1.00712 -0.049691 0)
(1.00589 -0.0507773 0)
(1.00457 -0.0517379 0)
(1.00317 -0.0525692 0)
(1.0017 -0.0532693 0)
(1.00018 -0.0538373 0)
(0.99861 -0.0542742 0)
(0.997009 -0.054582 0)
(0.995384 -0.0547641 0)
(0.993748 -0.0548249 0)
(0.992109 -0.0547701 0)
(0.990477 -0.0546057 0)
(0.988862 -0.0543389 0)
(0.98727 -0.0539772 0)
(0.985708 -0.0535286 0)
(0.984184 -0.0530016 0)
(0.982701 -0.0524044 0)
(0.981264 -0.0517454 0)
(0.979878 -0.0510326 0)
(0.978543 -0.0502734 0)
(0.977262 -0.0494747 0)
(0.976033 -0.0486429 0)
(0.974856 -0.0477841 0)
(0.97373 -0.0469043 0)
(0.972654 -0.0460096 0)
(0.97163 -0.0451057 0)
(0.970663 -0.0441979 0)
(0.969755 -0.0432909 0)
(0.968906 -0.0423886 0)
(0.968114 -0.0414941 0)
(0.967372 -0.0406106 0)
(0.966677 -0.0397407 0)
(0.966024 -0.0388868 0)
(0.96541 -0.0380513 0)
(0.964834 -0.0372358 0)
(0.964292 -0.036442 0)
(0.963784 -0.035671 0)
(0.963308 -0.0349239 0)
(0.962863 -0.0342014 0)
(0.962446 -0.0335041 0)
(0.962057 -0.0328325 0)
(1.00945 -0.000824494 0)
(1.00954 -0.00280269 0)
(1.00972 -0.00448893 0)
(1.00996 -0.00630817 0)
(1.01027 -0.00805764 0)
(1.01063 -0.00982983 0)
(1.01104 -0.0116152 0)
(1.01148 -0.0134228 0)
(1.01194 -0.015259 0)
(1.01241 -0.0171272 0)
(1.01289 -0.0190298 0)
(1.01336 -0.0209671 0)
(1.0138 -0.0229385 0)
(1.01421 -0.0249413 0)
(1.01457 -0.0269717 0)
(1.01487 -0.0290243 0)
(1.0151 -0.0310924 0)
(1.01524 -0.033168 0)
(1.01528 -0.035242 0)
(1.01521 -0.0373042 0)
(1.01503 -0.0393435 0)
(1.01472 -0.0413482 0)
(1.01428 -0.0433062 0)
(1.01371 -0.0452053 0)
(1.01301 -0.0470331 0)
(1.01216 -0.0487776 0)
(1.01119 -0.0504276 0)
(1.01008 -0.0519722 0)
(1.00886 -0.0534019 0)
(1.00751 -0.0547082 0)
(1.00606 -0.0558841 0)
(1.00451 -0.056924 0)
(1.00288 -0.0578238 0)
(1.00117 -0.0585812 0)
(0.999408 -0.0591952 0)
(0.997594 -0.0596667 0)
(0.995745 -0.0599979 0)
(0.993874 -0.0601922 0)
(0.991992 -0.0602546 0)
(0.99011 -0.0601909 0)
(0.98824 -0.0600081 0)
(0.986391 -0.0597137 0)
(0.984572 -0.0593157 0)
(0.982791 -0.0588224 0)
(0.981054 -0.0582425 0)
(0.979367 -0.0575844 0)
(0.977736 -0.0568572 0)
(0.976163 -0.0560696 0)
(0.974652 -0.0552307 0)
(0.973206 -0.0543495 0)
(0.971826 -0.0534344 0)
(0.970515 -0.0524933 0)
(0.969273 -0.0515328 0)
(0.968096 -0.0505589 0)
(0.966978 -0.0495768 0)
(0.965913 -0.0485913 0)
(0.964898 -0.0476074 0)
(0.963932 -0.0466296 0)
(0.963017 -0.0456618 0)
(0.962153 -0.0447074 0)
(0.961343 -0.0437693 0)
(0.960583 -0.0428498 0)
(0.959873 -0.0419509 0)
(0.95921 -0.0410743 0)
(0.95859 -0.0402216 0)
(0.958011 -0.0393939 0)
(0.957471 -0.0385922 0)
(0.956967 -0.0378174 0)
(0.956497 -0.0370701 0)
(1.01032 -0.000849524 0)
(1.01042 -0.00287929 0)
(1.01062 -0.00461315 0)
(1.01088 -0.0064839 0)
(1.01123 -0.0082826 0)
(1.01163 -0.0101075 0)
(1.01208 -0.0119476 0)
(1.01258 -0.0138132 0)
(1.0131 -0.0157114 0)
(1.01365 -0.0176468 0)
(1.01419 -0.0196225 0)
(1.01474 -0.0216401 0)
(1.01526 -0.0236995 0)
(1.01575 -0.0257994 0)
(1.01619 -0.0279367 0)
(1.01657 -0.0301068 0)
(1.01687 -0.0323037 0)
(1.01709 -0.03452 0)
(1.0172 -0.0367469 0)
(1.0172 -0.0389743 0)
(1.01707 -0.041191 0)
(1.0168 -0.0433851 0)
(1.0164 -0.0455437 0)
(1.01584 -0.0476537 0)
(1.01514 -0.0497014 0)
(1.01428 -0.0516736 0)
(1.01327 -0.0535571 0)
(1.01211 -0.0553393 0)
(1.01081 -0.0570086 0)
(1.00937 -0.0585543 0)
(1.0078 -0.0599671 0)
(1.00611 -0.0612392 0)
(1.00432 -0.0623644 0)
(1.00244 -0.0633379 0)
(1.00047 -0.0641571 0)
(0.998446 -0.0648208 0)
(0.996368 -0.0653298 0)
(0.994255 -0.0656863 0)
(0.99212 -0.0658941 0)
(0.989977 -0.0659586 0)
(0.987837 -0.0658861 0)
(0.985714 -0.065684 0)
(0.983617 -0.0653609 0)
(0.981557 -0.0649258 0)
(0.979542 -0.0643885 0)
(0.977579 -0.063759 0)
(0.975675 -0.0630474 0)
(0.973834 -0.0622632 0)
(0.97206 -0.0614157 0)
(0.970354 -0.0605133 0)
(0.968716 -0.0595641 0)
(0.967146 -0.0585758 0)
(0.965643 -0.0575563 0)
(0.96421 -0.0565136 0)
(0.962851 -0.0554554 0)
(0.96157 -0.0543885 0)
(0.960368 -0.0533188 0)
(0.959243 -0.0522513 0)
(0.958189 -0.0511905 0)
(0.957199 -0.0501404 0)
(0.956268 -0.0491048 0)
(0.955393 -0.048087 0)
(0.95457 -0.0470899 0)
(0.953796 -0.0461159 0)
(0.953071 -0.0451671 0)
(0.952392 -0.0442451 0)
(0.951756 -0.0433513 0)
(0.951161 -0.0424867 0)
(0.950605 -0.0416523 0)
(1.01116 -0.000871606 0)
(1.01127 -0.00294566 0)
(1.01149 -0.00472085 0)
(1.01178 -0.00663617 0)
(1.01216 -0.00847718 0)
(1.01261 -0.0103476 0)
(1.01311 -0.0122349 0)
(1.01366 -0.0141506 0)
(1.01424 -0.0161026 0)
(1.01485 -0.0180966 0)
(1.01548 -0.0201365 0)
(1.0161 -0.0222249 0)
(1.0167 -0.0243631 0)
(1.01728 -0.0265505 0)
(1.01781 -0.0287852 0)
(1.01827 -0.0310635 0)
(1.01867 -0.0333805 0)
(1.01897 -0.0357293 0)
(1.01916 -0.0381018 0)
(1.01923 -0.0404883 0)
(1.01917 -0.0428779 0)
(1.01897 -0.0452583 0)
(1.01861 -0.0476165 0)
(1.01809 -0.0499385 0)
(1.01741 -0.05221 0)
(1.01655 -0.0544161 0)
(1.01552 -0.0565422 0)
(1.01433 -0.058574 0)
(1.01297 -0.0604978 0)
(1.01145 -0.0623006 0)
(1.00978 -0.0639708 0)
(1.00797 -0.065498 0)
(1.00603 -0.0668736 0)
(1.00397 -0.0680904 0)
(1.00182 -0.0691434 0)
(0.999583 -0.0700294 0)
(0.997277 -0.070747 0)
(0.994919 -0.0712968 0)
(0.992524 -0.0716811 0)
(0.990108 -0.071904 0)
(0.987687 -0.0719712 0)
(0.985273 -0.0718893 0)
(0.982881 -0.0716666 0)
(0.980523 -0.0713118 0)
(0.978209 -0.0708342 0)
(0.975948 -0.0702439 0)
(0.97375 -0.0695508 0)
(0.971619 -0.0687657 0)
(0.969563 -0.0678996 0)
(0.967585 -0.0669637 0)
(0.965689 -0.0659695 0)
(0.96388 -0.0649278 0)
(0.96216 -0.0638483 0)
(0.960527 -0.0627396 0)
(0.958975 -0.061609 0)
(0.957498 -0.0604633 0)
(0.95609 -0.0593092 0)
(0.95475 -0.0581532 0)
(0.953479 -0.0570011 0)
(0.952279 -0.0558582 0)
(0.951151 -0.0547286 0)
(0.950094 -0.0536163 0)
(0.949104 -0.0525244 0)
(0.948178 -0.0514556 0)
(0.947312 -0.0504123 0)
(0.946503 -0.0493967 0)
(0.945748 -0.0484103 0)
(0.945043 -0.0474547 0)
(0.944386 -0.0465312 0)
(1.01198 -0.0008912 0)
(1.0121 -0.00300348 0)
(1.01233 -0.00481476 0)
(1.01265 -0.00676878 0)
(1.01307 -0.00864618 0)
(1.01355 -0.0105558 0)
(1.0141 -0.0124838 0)
(1.01471 -0.0144425 0)
(1.01536 -0.016441 0)
(1.01604 -0.0184856 0)
(1.01673 -0.0205813 0)
(1.01743 -0.0227319 0)
(1.01812 -0.0249397 0)
(1.01878 -0.0272052 0)
(1.01941 -0.0295277 0)
(1.01997 -0.0319048 0)
(1.02045 -0.0343324 0)
(1.02085 -0.0368048 0)
(1.02114 -0.0393146 0)
(1.0213 -0.0418527 0)
(1.02132 -0.0444088 0)
(1.02119 -0.0469707 0)
(1.0209 -0.0495254 0)
(1.02044 -0.0520585 0)
(1.01979 -0.0545549 0)
(1.01896 -0.0569989 0)
(1.01794 -0.0593744 0)
(1.01673 -0.0616654 0)
(1.01533 -0.0638563 0)
(1.01375 -0.065932 0)
(1.012 -0.0678783 0)
(1.01008 -0.0696825 0)
(1.00801 -0.0713331 0)
(1.0058 -0.0728203 0)
(1.00346 -0.0741365 0)
(1.00102 -0.0752757 0)
(0.998492 -0.0762343 0)
(0.995888 -0.0770106 0)
(0.993231 -0.0776049 0)
(0.990536 -0.0780197 0)
(0.987822 -0.0782593 0)
(0.985106 -0.0783297 0)
(0.982402 -0.0782383 0)
(0.979725 -0.0779941 0)
(0.977088 -0.0776071 0)
(0.974504 -0.0770884 0)
(0.971981 -0.0764497 0)
(0.969529 -0.075703 0)
(0.967154 -0.0748599 0)
(0.964862 -0.0739313 0)
(0.962655 -0.0729277 0)
(0.960534 -0.0718589 0)
(0.9585 -0.0707349 0)
(0.956555 -0.0695661 0)
(0.954702 -0.0683629 0)
(0.95295 -0.0671354 0)
(0.951301 -0.0658922 0)
(0.949752 -0.0646409 0)
(0.9483 -0.0633879 0)
(0.946934 -0.0621394 0)
(0.94565 -0.0609008 0)
(0.944441 -0.0596772 0)
(0.943305 -0.0584729 0)
(0.942237 -0.0572919 0)
(0.941235 -0.0561373 0)
(0.940297 -0.0550117 0)
(0.939419 -0.0539174 0)
(0.938598 -0.0528564 0)
(0.937831 -0.05183 0)
(1.01277 -0.00090872 0)
(1.0129 -0.00305418 0)
(1.01315 -0.0048972 0)
(1.0135 -0.00688499 0)
(1.01394 -0.00879377 0)
(1.01447 -0.0107373 0)
(1.01507 -0.0127001 0)
(1.01573 -0.0146958 0)
(1.01644 -0.016734 0)
(1.01718 -0.018822 0)
(1.01795 -0.0209658 0)
(1.01873 -0.0231704 0)
(1.01951 -0.025439 0)
(1.02026 -0.0277735 0)
(1.02098 -0.0301745 0)
(1.02164 -0.0326407 0)
(1.02223 -0.0351692 0)
(1.02273 -0.0377555 0)
(1.02312 -0.0403933 0)
(1.02338 -0.0430745 0)
(1.0235 -0.0457894 0)
(1.02346 -0.0485264 0)
(1.02325 -0.0512725 0)
(1.02286 -0.0540135 0)
(1.02227 -0.0567339 0)
(1.02149 -0.0594171 0)
(1.02049 -0.062046 0)
(1.01929 -0.0646034 0)
(1.01788 -0.0670717 0)
(1.01626 -0.0694337 0)
(1.01445 -0.0716731 0)
(1.01244 -0.0737744 0)
(1.01026 -0.0757234 0)
(1.00791 -0.0775076 0)
(1.00541 -0.079116 0)
(1.00278 -0.0805401 0)
(1.00003 -0.0817732 0)
(0.997187 -0.082811 0)
(0.994267 -0.0836515 0)
(0.991291 -0.0842949 0)
(0.988278 -0.0847436 0)
(0.985247 -0.0850021 0)
(0.982216 -0.0850768 0)
(0.979204 -0.0849755 0)
(0.976225 -0.0847075 0)
(0.973295 -0.084283 0)
(0.970426 -0.083713 0)
(0.96763 -0.0830092 0)
(0.964916 -0.0821842 0)
(0.962291 -0.0812514 0)
(0.959764 -0.080225 0)
(0.95734 -0.0791192 0)
(0.955025 -0.0779477 0)
(0.952821 -0.0767227 0)
(0.950725 -0.0754546 0)
(0.948729 -0.0741527 0)
(0.946826 -0.072826 0)
(0.945014 -0.0714835 0)
(0.943294 -0.0701338 0)
(0.941669 -0.0687844 0)
(0.940139 -0.067442 0)
(0.938703 -0.0661123 0)
(0.937358 -0.0648003 0)
(0.936099 -0.0635103 0)
(0.934922 -0.0622462 0)
(0.933823 -0.0610112 0)
(0.932796 -0.059808 0)
(0.931837 -0.0586393 0)
(0.930943 -0.0575071 0)
(1.01353 -0.000924511 0)
(1.01367 -0.00309896 0)
(1.01394 -0.00497007 0)
(1.01431 -0.00698747 0)
(1.01479 -0.00892335 0)
(1.01535 -0.0108961 0)
(1.016 -0.0128889 0)
(1.01671 -0.014916 0)
(1.01748 -0.0169879 0)