/*--------------------------------*- C++ -*----------------------------------*\
  =========                 |
  \\      /  F ield         | OpenFOAM: The Open Source CFD Toolbox
   \\    /   O peration     | Website:  https://openfoam.org
    \\  /    A nd           | Version:  10
     \\/     M anipulation  |
\*---------------------------------------------------------------------------*/
FoamFile
{
    format      ascii;
    class       volVectorField;
    location    "330";
    object      U;
}
// * * * * * * * * * * * * * * * * * * * * * * * * * * * * * * * * * * * * * //

dimensions      [0 1 -1 0 0 0 0];

internalField   nonuniform List<vector> 
66268
(
(1 -4.35855e-05 0)
(1 -0.00016006 0)
(1 -0.000255961 0)
(1 -0.000357162 0)
(1 -0.000457165 0)
(1 -0.000556807 0)
(1 -0.000656876 0)
(1 -0.000757559 0)
(1 -0.000858861 0)
(1 -0.000960707 0)
(1 -0.00106292 0)
(1 -0.00116523 0)
(1 -0.00126727 0)
(1 -0.00136864 0)
(0.999999 -0.00146886 0)
(0.999999 -0.00156743 0)
(0.999999 -0.00166384 0)
(0.999999 -0.00175757 0)
(0.999999 -0.00184809 0)
(0.999999 -0.00193493 0)
(0.999998 -0.00201762 0)
(0.999998 -0.00209577 0)
(0.999998 -0.00216901 0)
(0.999998 -0.00223705 0)
(0.999998 -0.00229967 0)
(0.999998 -0.00235669 0)
(0.999997 -0.00240801 0)
(0.999997 -0.00245359 0)
(0.999997 -0.00249345 0)
(0.999997 -0.00252769 0)
(0.999997 -0.00255643 0)
(0.999997 -0.00257986 0)
(0.999997 -0.0025982 0)
(0.999997 -0.00261172 0)
(0.999997 -0.0026207 0)
(0.999997 -0.00262546 0)
(0.999997 -0.00262633 0)
(0.999997 -0.00262361 0)
(0.999998 -0.00261762 0)
(0.999998 -0.00260865 0)
(0.999998 -0.00259697 0)
(0.999998 -0.0025828 0)
(0.999999 -0.00256635 0)
(0.999999 -0.00254781 0)
(0.999999 -0.00252736 0)
(0.999998 -0.00250521 0)
(0.999995 -0.00248155 0)
(0.999991 -0.00245661 0)
(0.999983 -0.00243065 0)
(0.999971 -0.00240394 0)
(0.999955 -0.00237678 0)
(0.999938 -0.00234943 0)
(0.999922 -0.0023221 0)
(0.999908 -0.0022949 0)
(0.9999 -0.00226789 0)
(0.999897 -0.00224109 0)
(0.999899 -0.00221453 0)
(0.999906 -0.00218826 0)
(0.999915 -0.00216233 0)
(0.999925 -0.00213685 0)
(0.999935 -0.00211191 0)
(0.999945 -0.00208759 0)
(0.999954 -0.00206396 0)
(0.999961 -0.0020411 0)
(0.999968 -0.00201903 0)
(0.999973 -0.00199778 0)
(0.999977 -0.00197736 0)
(0.99998 -0.0019578 0)
(0.999983 -0.00193913 0)
(1.00019 -0.000127403 0)
(1.00019 -0.000460778 0)
(1.00019 -0.000734803 0)
(1.0002 -0.00102726 0)
(1.00021 -0.0013154 0)
(1.00021 -0.00160269 0)
(1.00022 -0.00189175 0)
(1.00023 -0.00218302 0)
(1.00024 -0.00247653 0)
(1.00025 -0.00277214 0)
(1.00026 -0.00306935 0)
(1.00027 -0.0033674 0)
(1.00028 -0.00366528 0)
(1.00029 -0.00396177 0)
(1.0003 -0.00425554 0)
(1.00031 -0.00454509 0)
(1.00031 -0.0048289 0)
(1.00031 -0.00510542 0)
(1.00031 -0.00537309 0)
(1.00031 -0.00563044 0)
(1.00031 -0.0058761 0)
(1.0003 -0.00610879 0)
(1.0003 -0.00632742 0)
(1.00029 -0.00653105 0)
(1.00027 -0.00671893 0)
(1.00026 -0.00689051 0)
(1.00024 -0.00704541 0)
(1.00022 -0.00718346 0)
(1.0002 -0.00730467 0)
(1.00018 -0.00740922 0)
(1.00016 -0.00749742 0)
(1.00013 -0.00756976 0)
(1.00011 -0.00762681 0)
(1.00008 -0.00766923 0)
(1.00005 -0.00769771 0)
(1.00003 -0.00771302 0)
(0.999999 -0.00771594 0)
(0.999972 -0.00770729 0)
(0.999944 -0.00768794 0)
(0.999917 -0.00765878 0)
(0.99989 -0.00762078 0)
(0.999862 -0.00757492 0)
(0.999835 -0.00752222 0)
(0.999808 -0.00746368 0)
(0.999782 -0.00740027 0)
(0.999757 -0.0073329 0)
(0.999733 -0.00726239 0)
(0.999713 -0.00718949 0)
(0.999698 -0.00711482 0)
(0.999688 -0.00703892 0)
(0.999682 -0.00696219 0)
(0.99968 -0.00688496 0)
(0.999678 -0.00680754 0)
(0.999673 -0.00673019 0)
(0.999663 -0.0066532 0)
(0.999647 -0.00657684 0)
(0.999625 -0.00650135 0)
(0.9996 -0.00642693 0)
(0.999573 -0.00635371 0)
(0.999546 -0.00628182 0)
(0.99952 -0.00621135 0)
(0.999496 -0.00614239 0)
(0.999474 -0.00607503 0)
(0.999454 -0.00600934 0)
(0.999437 -0.0059454 0)
(0.999422 -0.00588328 0)
(0.999409 -0.00582303 0)
(0.999397 -0.00576473 0)
(0.999386 -0.00570851 0)
(1.00055 -0.000206403 0)
(1.00055 -0.000736154 0)
(1.00057 -0.00117104 0)
(1.00059 -0.00164004 0)
(1.00061 -0.00209993 0)
(1.00063 -0.00255834 0)
(1.00066 -0.00301997 0)
(1.00069 -0.00348516 0)
(1.00072 -0.00395407 0)
(1.00075 -0.00442656 0)
(1.00078 -0.00490193 0)
(1.00081 -0.00537898 0)
(1.00084 -0.00585618 0)
(1.00086 -0.00633163 0)
(1.00089 -0.00680321 0)
(1.0009 -0.00726859 0)
(1.00092 -0.00772531 0)
(1.00092 -0.00817087 0)
(1.00093 -0.00860278 0)
(1.00092 -0.00901863 0)
(1.00091 -0.00941615 0)
(1.00089 -0.00979323 0)
(1.00087 -0.010148 0)
(1.00084 -0.010479 0)
(1.0008 -0.0107847 0)
(1.00075 -0.0110643 0)
(1.0007 -0.011317 0)
(1.00065 -0.0115424 0)
(1.00059 -0.0117406 0)
(1.00052 -0.0119116 0)
(1.00045 -0.0120559 0)
(1.00038 -0.0121742 0)
(1.00031 -0.0122675 0)
(1.00023 -0.0123369 0)
(1.00015 -0.0123835 0)
(1.00007 -0.0124088 0)
(0.999987 -0.0124142 0)
(0.999906 -0.0124013 0)
(0.999825 -0.0123716 0)
(0.999745 -0.0123268 0)
(0.999666 -0.0122684 0)
(0.999588 -0.0121978 0)
(0.999512 -0.0121161 0)
(0.999438 -0.0120247 0)
(0.999365 -0.0119246 0)
(0.999295 -0.0118168 0)
(0.999227 -0.0117023 0)
(0.999159 -0.0115819 0)
(0.999092 -0.0114567 0)
(0.999024 -0.0113276 0)
(0.998955 -0.0111954 0)
(0.998888 -0.0110611 0)
(0.998823 -0.0109255 0)
(0.998765 -0.0107895 0)
(0.998713 -0.0106537 0)
(0.99867 -0.0105188 0)
(0.998633 -0.0103852 0)
(0.998603 -0.0102535 0)
(0.998577 -0.0101241 0)
(0.998553 -0.00999728 0)
(0.998531 -0.00987338 0)
(0.99851 -0.00975265 0)
(0.998489 -0.00963528 0)
(0.998468 -0.00952145 0)
(0.998448 -0.00941125 0)
(0.998428 -0.00930476 0)
(0.998408 -0.00920205 0)
(0.998389 -0.00910317 0)
(0.998371 -0.00900816 0)
(1.00105 -0.000281958 0)
(1.00106 -0.000995766 0)
(1.00108 -0.0015832 0)
(1.00111 -0.00221981 0)
(1.00115 -0.00284052 0)
(1.0012 -0.00345909 0)
(1.00125 -0.00408167 0)
(1.0013 -0.00470824 0)
(1.00136 -0.00533925 0)
(1.00141 -0.00597466 0)
(1.00147 -0.00661355 0)
(1.00152 -0.00725443 0)
(1.00157 -0.00789532 0)
(1.00162 -0.0085338 0)
(1.00166 -0.00916709 0)
(1.00169 -0.00979215 0)
(1.00172 -0.0104057 0)
(1.00173 -0.0110045 0)
(1.00173 -0.0115852 0)
(1.00172 -0.0121445 0)
(1.0017 -0.0126794 0)
(1.00167 -0.0131869 0)
(1.00162 -0.0136645 0)
(1.00156 -0.01411 0)
(1.00148 -0.0145215 0)
(1.0014 -0.0148976 0)
(1.0013 -0.0152372 0)
(1.0012 -0.0155397 0)
(1.00108 -0.015805 0)
(1.00096 -0.0160331 0)
(1.00083 -0.0162247 0)
(1.00069 -0.0163806 0)
(1.00055 -0.016502 0)
(1.0004 -0.0165903 0)
(1.00025 -0.016647 0)
(1.0001 -0.0166739 0)
(0.99995 -0.0166728 0)
(0.999798 -0.0166456 0)
(0.999648 -0.0165941 0)
(0.9995 -0.0165202 0)
(0.999354 -0.016426 0)
(0.99921 -0.0163134 0)
(0.999071 -0.0161844 0)
(0.998935 -0.0160412 0)
(0.998803 -0.0158858 0)
(0.998675 -0.0157202 0)
(0.998554 -0.0155463 0)
(0.998438 -0.0153659 0)
(0.99833 -0.0151807 0)
(0.998231 -0.014992 0)
(0.99814 -0.014801 0)
(0.998055 -0.0146089 0)
(0.997975 -0.0144163 0)
(0.997896 -0.0142242 0)
(0.997816 -0.0140331 0)
(0.997734 -0.0138437 0)
(0.99765 -0.0136566 0)
(0.997566 -0.0134723 0)
(0.997484 -0.0132912 0)
(0.997404 -0.0131137 0)
(0.997329 -0.0129402 0)
(0.997258 -0.0127708 0)
(0.997192 -0.0126059 0)
(0.997131 -0.0124457 0)
(0.997075 -0.0122902 0)
(0.997023 -0.0121396 0)
(0.996975 -0.0119941 0)
(0.99693 -0.0118538 0)
(0.996888 -0.0117187 0)
(1.00163 -0.000354895 0)
(1.00165 -0.00124608 0)
(1.00169 -0.0019836 0)
(1.00173 -0.00278232 0)
(1.00179 -0.00355683 0)
(1.00186 -0.00432885 0)
(1.00193 -0.0051045 0)
(1.00201 -0.00588349 0)
(1.0021 -0.00666676 0)
(1.00219 -0.00745432 0)
(1.00228 -0.0082451 0)
(1.00236 -0.00903739 0)
(1.00244 -0.00982891 0)
(1.00251 -0.0106168 0)
(1.00257 -0.0113978 0)
(1.00262 -0.0121683 0)
(1.00266 -0.0129244 0)
(1.00268 -0.0136621 0)
(1.00269 -0.0143773 0)
(1.00267 -0.0150662 0)
(1.00264 -0.0157248 0)
(1.00258 -0.0163497 0)
(1.00251 -0.0169376 0)
(1.00242 -0.0174856 0)
(1.00231 -0.0179914 0)
(1.00217 -0.0184531 0)
(1.00202 -0.0188693 0)
(1.00186 -0.0192392 0)
(1.00168 -0.0195622 0)
(1.00148 -0.0198386 0)
(1.00128 -0.0200688 0)
(1.00106 -0.0202539 0)
(1.00084 -0.0203953 0)
(1.00061 -0.0204945 0)
(1.00037 -0.0205536 0)
(1.00013 -0.0205748 0)
(0.99989 -0.0205605 0)
(0.999649 -0.0205133 0)
(0.999408 -0.0204358 0)
(0.99917 -0.020331 0)
(0.998934 -0.0202015 0)
(0.998703 -0.02005 0)
(0.998476 -0.0198791 0)
(0.998254 -0.0196913 0)
(0.998038 -0.0194885 0)
(0.997829 -0.019273 0)
(0.997626 -0.0190464 0)
(0.997429 -0.0188104 0)
(0.997237 -0.0185669 0)
(0.99705 -0.0183171 0)
(0.996868 -0.0180628 0)
(0.996692 -0.0178054 0)
(0.996523 -0.0175464 0)
(0.996364 -0.0172871 0)
(0.996216 -0.0170288 0)
(0.996081 -0.0167726 0)
(0.995957 -0.0165194 0)
(0.995844 -0.01627 0)
(0.995738 -0.0160252 0)
(0.995639 -0.0157854 0)
(0.995546 -0.0155512 0)
(0.995457 -0.015323 0)
(0.995373 -0.0151012 0)
(0.995292 -0.0148859 0)
(0.995215 -0.0146775 0)
(0.995142 -0.0144759 0)
(0.995072 -0.0142815 0)
(0.995006 -0.0140941 0)
(0.994944 -0.013914 0)
(1.00228 -0.000425522 0)
(1.0023 -0.0014879 0)
(1.00236 -0.00237234 0)
(1.00242 -0.00332741 0)
(1.0025 -0.00424938 0)
(1.00259 -0.0051687 0)
(1.0027 -0.00609031 0)
(1.00281 -0.0070139 0)
(1.00293 -0.00794101 0)
(1.00305 -0.00887164 0)
(1.00318 -0.00980465 0)
(1.00329 -0.0107382 0)
(1.00341 -0.0116699 0)
(1.00351 -0.0125965 0)
(1.0036 -0.0135144 0)
(1.00367 -0.0144195 0)
(1.00372 -0.0153075 0)
(1.00375 -0.0161739 0)
(1.00376 -0.017014 0)
(1.00375 -0.0178233 0)
(1.0037 -0.0185973 0)
(1.00363 -0.0193319 0)
(1.00353 -0.0200231 0)
(1.0034 -0.0206677 0)
(1.00324 -0.0212627 0)
(1.00306 -0.0218057 0)
(1.00285 -0.0222949 0)
(1.00262 -0.0227291 0)
(1.00236 -0.0231076 0)
(1.00208 -0.0234305 0)
(1.00179 -0.0236982 0)
(1.00148 -0.0239117 0)
(1.00116 -0.0240727 0)
(1.00082 -0.0241829 0)
(1.00048 -0.0242447 0)
(1.00014 -0.0242607 0)
(0.999788 -0.0242335 0)
(0.999437 -0.0241662 0)
(0.999088 -0.0240616 0)
(0.998741 -0.0239227 0)
(0.998398 -0.0237525 0)
(0.998061 -0.0235541 0)
(0.997731 -0.0233303 0)
(0.997409 -0.0230844 0)
(0.997095 -0.0228192 0)
(0.996792 -0.0225378 0)
(0.9965 -0.0222432 0)
(0.996219 -0.0219379 0)
(0.995951 -0.0216247 0)
(0.995697 -0.0213057 0)
(0.995457 -0.0209829 0)
(0.995231 -0.0206582 0)
(0.995016 -0.0203329 0)
(0.994809 -0.0200082 0)
(0.994609 -0.0196855 0)
(0.994413 -0.0193656 0)
(0.994223 -0.0190497 0)
(0.994038 -0.0187385 0)
(0.993861 -0.0184329 0)
(0.993692 -0.0181335 0)
(0.993532 -0.017841 0)
(0.993382 -0.0175557 0)
(0.993241 -0.0172781 0)
(0.993109 -0.0170086 0)
(0.992986 -0.0167474 0)
(0.992871 -0.0164947 0)
(0.992763 -0.0162506 0)
(0.992662 -0.0160154 0)
(0.992568 -0.0157891 0)
(1.003 -0.000493559 0)
(1.00303 -0.00171841 0)
(1.0031 -0.00274282 0)
(1.00318 -0.0038464 0)
(1.00328 -0.0049081 0)
(1.0034 -0.00596721 0)
(1.00354 -0.0070268 0)
(1.00369 -0.00808694 0)
(1.00384 -0.0091497 0)
(1.004 -0.0102151 0)
(1.00416 -0.011282 0)
(1.00432 -0.0123486 0)
(1.00446 -0.0134124 0)
(1.0046 -0.01447 0)
(1.00471 -0.0155176 0)
(1.00481 -0.0165507 0)
(1.00488 -0.0175648 0)
(1.00493 -0.0185549 0)
(1.00494 -0.0195159 0)
(1.00492 -0.0204427 0)
(1.00487 -0.0213304 0)
(1.00478 -0.0221742 0)
(1.00465 -0.0229696 0)
(1.00448 -0.0237128 0)
(1.00428 -0.0244002 0)
(1.00403 -0.0250288 0)
(1.00376 -0.0255964 0)
(1.00345 -0.0261012 0)
(1.00311 -0.0265424 0)
(1.00274 -0.0269196 0)
(1.00234 -0.027233 0)
(1.00193 -0.0274835 0)
(1.0015 -0.0276727 0)
(1.00105 -0.0278025 0)
(1.00059 -0.0278752 0)
(1.00012 -0.0278935 0)
(0.999643 -0.0278606 0)
(0.999167 -0.0277797 0)
(0.998692 -0.0276545 0)
(0.998219 -0.0274885 0)
(0.997751 -0.0272858 0)
(0.99729 -0.02705 0)
(0.996838 -0.026785 0)
(0.996396 -0.0264942 0)
(0.995966 -0.0261811 0)
(0.995548 -0.0258487 0)
(0.995143 -0.0254997 0)
(0.994752 -0.0251368 0)
(0.994375 -0.0247625 0)
(0.99401 -0.024379 0)
(0.993658 -0.0239888 0)
(0.993319 -0.023594 0)
(0.992994 -0.0231969 0)
(0.992685 -0.0227994 0)
(0.992395 -0.0224035 0)
(0.992123 -0.0220108 0)
(0.991869 -0.0216228 0)
(0.991632 -0.0212404 0)
(0.99141 -0.020865 0)
(0.991201 -0.0204972 0)
(0.991003 -0.0201379 0)
(0.990816 -0.0197876 0)
(0.990638 -0.019447 0)
(0.99047 -0.0191163 0)
(0.99031 -0.018796 0)
(0.99016 -0.0184863 0)
(0.990017 -0.0181873 0)
(0.989883 -0.0178992 0)
(0.989757 -0.017622 0)
(1.00379 -0.000558021 0)
(1.00382 -0.00193352 0)
(1.0039 -0.00308762 0)
(1.004 -0.00432949 0)
(1.00413 -0.00552128 0)
(1.00428 -0.00671096 0)
(1.00445 -0.00789945 0)
(1.00464 -0.00908747 0)
(1.00483 -0.0102776 0)
(1.00503 -0.0114699 0)
(1.00523 -0.0126634 0)
(1.00542 -0.0138565 0)
(1.0056 -0.0150464 0)
(1.00577 -0.0162299 0)
(1.00592 -0.0174031 0)
(1.00605 -0.0185614 0)
(1.00614 -0.0196999 0)
(1.0062 -0.0208134 0)
(1.00622 -0.0218964 0)
(1.0062 -0.0229435 0)
(1.00614 -0.0239492 0)
(1.00603 -0.0249082 0)
(1.00587 -0.0258155 0)
(1.00566 -0.0266664 0)
(1.00541 -0.0274569 0)
(1.00511 -0.0281832 0)
(1.00476 -0.0288425 0)
(1.00437 -0.0294325 0)
(1.00394 -0.0299517 0)
(1.00347 -0.030399 0)
(1.00297 -0.0307745 0)
(1.00244 -0.0310787 0)
(1.00188 -0.0313128 0)
(1.00131 -0.0314785 0)
(1.00071 -0.0315783 0)
(1.00011 -0.031615 0)
(0.999497 -0.0315919 0)
(0.99888 -0.0315125 0)
(0.998263 -0.0313806 0)
(0.997649 -0.0312001 0)
(0.997041 -0.0309749 0)
(0.996441 -0.030709 0)
(0.995852 -0.0304062 0)
(0.995277 -0.0300707 0)
(0.994716 -0.0297063 0)
(0.994172 -0.0293172 0)
(0.993645 -0.0289073 0)
(0.993138 -0.0284806 0)
(0.99265 -0.0280406 0)
(0.992184 -0.0275908 0)
(0.99174 -0.0271341 0)
(0.991318 -0.0266732 0)
(0.990916 -0.0262103 0)
(0.990532 -0.0257473 0)
(0.990164 -0.025286 0)
(0.98981 -0.0248281 0)
(0.989469 -0.024375 0)
(0.989142 -0.023928 0)
(0.988831 -0.0234885 0)
(0.988535 -0.0230574 0)
(0.988255 -0.0226357 0)
(0.987992 -0.0222242 0)
(0.987744 -0.0218234 0)
(0.987512 -0.021434 0)
(0.987293 -0.0210563 0)
(0.987088 -0.0206907 0)
(0.986896 -0.0203375 0)
(0.986716 -0.0199968 0)
(0.986547 -0.0196689 0)
(1.00462 -0.000617708 0)
(1.00467 -0.00212972 0)
(1.00476 -0.00340149 0)
(1.00488 -0.00476966 0)
(1.00504 -0.00608039 0)
(1.00522 -0.0073902 0)
(1.00542 -0.00869769 0)
(1.00564 -0.0100045 0)
(1.00588 -0.0113136 0)
(1.00612 -0.0126252 0)
(1.00636 -0.0139387 0)
(1.00659 -0.0152524 0)
(1.00682 -0.016564 0)
(1.00702 -0.0178702 0)
(1.00721 -0.0191671 0)
(1.00736 -0.02045 0)
(1.00748 -0.0217141 0)
(1.00756 -0.0229538 0)
(1.0076 -0.0241635 0)
(1.00758 -0.0253374 0)
(1.00751 -0.0264695 0)
(1.00739 -0.0275541 0)
(1.0072 -0.0285854 0)
(1.00696 -0.0295582 0)
(1.00666 -0.0304676 0)
(1.0063 -0.0313092 0)
(1.00588 -0.0320792 0)
(1.00541 -0.0327746 0)
(1.00488 -0.033393 0)
(1.00431 -0.0339328 0)
(1.0037 -0.0343932 0)
(1.00305 -0.0347741 0)
(1.00236 -0.0350765 0)
(1.00165 -0.0353015 0)
(1.00092 -0.0354515 0)
(1.00017 -0.035529 0)
(0.999401 -0.0355372 0)
(0.998631 -0.0354798 0)
(0.997857 -0.0353606 0)
(0.997086 -0.035184 0)
(0.99632 -0.0349547 0)
(0.995564 -0.0346773 0)
(0.99482 -0.0343567 0)
(0.99409 -0.0339978 0)
(0.993378 -0.0336051 0)
(0.992685 -0.0331831 0)
(0.992013 -0.0327356 0)
(0.991363 -0.0322664 0)
(0.990735 -0.031779 0)
(0.99013 -0.0312766 0)
(0.989547 -0.0307626 0)
(0.988986 -0.0302399 0)
(0.988449 -0.0297118 0)
(0.987937 -0.0291811 0)
(0.987451 -0.0286504 0)
(0.986993 -0.0281223 0)
(0.986563 -0.0275987 0)
(0.986158 -0.0270813 0)
(0.985776 -0.0265718 0)
(0.985417 -0.0260714 0)
(0.985077 -0.0255813 0)
(0.984756 -0.0251026 0)
(0.984452 -0.0246361 0)
(0.984164 -0.0241825 0)
(0.983893 -0.0237423 0)
(0.983637 -0.023316 0)
(0.983395 -0.0229039 0)
(0.983168 -0.0225064 0)
(0.982954 -0.0221235 0)
(1.00549 -0.000671821 0)
(1.00554 -0.00230532 0)
(1.00565 -0.0036824 0)
(1.00579 -0.00516421 0)
(1.00598 -0.00658219 0)
(1.00619 -0.00800127 0)
(1.00643 -0.00941762 0)
(1.00669 -0.0108339 0)
(1.00697 -0.0122536 0)
(1.00725 -0.0136773 0)
(1.00753 -0.0151044 0)
(1.00781 -0.0165338 0)
(1.00808 -0.0179632 0)
(1.00833 -0.0193896 0)
(1.00856 -0.0208092 0)
(1.00875 -0.0222174 0)
(1.0089 -0.0236093 0)
(1.009 -0.0249794 0)
(1.00905 -0.0263219 0)
(1.00905 -0.0276306 0)
(1.00898 -0.0288992 0)
(1.00885 -0.0301215 0)
(1.00865 -0.0312912 0)
(1.00837 -0.0324022 0)
(1.00803 -0.0334488 0)
(1.00762 -0.0344258 0)
(1.00713 -0.0353284 0)
(1.00658 -0.0361527 0)
(1.00597 -0.0368952 0)
(1.0053 -0.0375534 0)
(1.00457 -0.0381256 0)
(1.00379 -0.0386109 0)
(1.00298 -0.0390094 0)
(1.00212 -0.0393217 0)
(1.00124 -0.0395495 0)
(1.00033 -0.039695 0)
(0.999403 -0.0397613 0)
(0.998465 -0.0397519 0)
(0.997522 -0.0396708 0)
(0.996579 -0.0395224 0)
(0.99564 -0.0393115 0)
(0.99471 -0.0390428 0)
(0.993794 -0.0387211 0)
(0.992895 -0.0383513 0)
(0.992017 -0.0379384 0)
(0.991161 -0.0374873 0)
(0.990331 -0.0370032 0)
(0.989528 -0.0364912 0)
(0.988753 -0.0359561 0)
(0.98801 -0.0354027 0)
(0.987298 -0.0348352 0)
(0.986618 -0.0342574 0)
(0.985971 -0.0336726 0)
(0.985352 -0.0330839 0)
(0.984762 -0.0324938 0)
(0.984196 -0.0319048 0)
(0.983654 -0.0313193 0)
(0.983137 -0.0307393 0)
(0.982644 -0.0301669 0)
(0.982176 -0.0296036 0)
(0.981734 -0.0290508 0)
(0.981317 -0.02851 0)
(0.980924 -0.027982 0)
(0.980555 -0.0274677 0)
(0.980207 -0.0269679 0)
(0.979881 -0.0264832 0)
(0.979574 -0.026014 0)
(0.979286 -0.0255608 0)
(0.979016 -0.0251238 0)
(1.00638 -0.000720135 0)
(1.00644 -0.00246049 0)
(1.00657 -0.0039312 0)
(1.00673 -0.00551434 0)
(1.00694 -0.00702823 0)
(1.00719 -0.00854601 0)
(1.00746 -0.0100614 0)
(1.00776 -0.0115783 0)
(1.00808 -0.0131006 0)
(1.00841 -0.0146291 0)
(1.00874 -0.0161639 0)
(1.00907 -0.017704 0)
(1.00939 -0.0192475 0)
(1.00968 -0.0207917 0)
(1.00995 -0.0223329 0)
(1.01018 -0.0238669 0)
(1.01037 -0.0253888 0)
(1.01051 -0.0268932 0)
(1.01058 -0.0283741 0)
(1.0106 -0.0298252 0)
(1.01054 -0.0312401 0)
(1.01041 -0.0326118 0)
(1.0102 -0.0339337 0)
(1.00991 -0.035199 0)
(1.00953 -0.0364011 0)
(1.00907 -0.0375338 0)
(1.00853 -0.0385914 0)
(1.00791 -0.0395687 0)
(1.00721 -0.0404612 0)
(1.00644 -0.0412652 0)
(1.00561 -0.0419778 0)
(1.00471 -0.042597 0)
(1.00376 -0.0431217 0)
(1.00276 -0.0435518 0)
(1.00172 -0.043888 0)
(1.00065 -0.0441321 0)
(0.99955 -0.0442864 0)
(0.998437 -0.0443541 0)
(0.997312 -0.044339 0)
(0.996184 -0.0442454 0)
(0.995059 -0.044078 0)
(0.993941 -0.043842 0)
(0.992837 -0.0435431 0)
(0.99175 -0.0431869 0)
(0.990685 -0.0427794 0)
(0.989646 -0.0423263 0)
(0.988634 -0.0418329 0)
(0.987653 -0.0413044 0)
(0.986704 -0.0407455 0)
(0.985788 -0.0401608 0)
(0.984905 -0.0395548 0)
(0.984055 -0.0389316 0)
(0.983239 -0.0382958 0)
(0.982459 -0.0376513 0)
(0.981717 -0.0370019 0)
(0.981014 -0.0363511 0)
(0.980349 -0.0357019 0)
(0.979722 -0.0350569 0)
(0.979131 -0.0344182 0)
(0.978572 -0.033788 0)
(0.978043 -0.0331681 0)
(0.977544 -0.0325601 0)
(0.977072 -0.0319654 0)
(0.976625 -0.0313853 0)
(0.976204 -0.0308207 0)
(0.975807 -0.0302724 0)
(0.975433 -0.0297411 0)
(0.975081 -0.0292274 0)
(0.97475 -0.0287317 0)
(1.00728 -0.000762867 0)
(1.00735 -0.00259655 0)
(1.00749 -0.00415028 0)
(1.00768 -0.00582329 0)
(1.00792 -0.00742255 0)
(1.0082 -0.00902913 0)
(1.00851 -0.0106343 0)
(1.00885 -0.0122433 0)
(1.00922 -0.0138605 0)
(1.00959 -0.0154869 0)
(1.00997 -0.0171233 0)
(1.01035 -0.0187691 0)
(1.01072 -0.0204226 0)
(1.01107 -0.0220816 0)
(1.01138 -0.0237427 0)
(1.01166 -0.025402 0)
(1.0119 -0.0270548 0)
(1.01207 -0.0286959 0)
(1.01219 -0.0303194 0)
(1.01223 -0.031919 0)
(1.01219 -0.0334879 0)
(1.01207 -0.035019 0)
(1.01187 -0.0365051 0)
(1.01157 -0.0379388 0)
(1.01117 -0.0393128 0)
(1.01068 -0.04062 0)
(1.01009 -0.0418535 0)
(1.00941 -0.0430069 0)
(1.00864 -0.0440744 0)
(1.00778 -0.0450509 0)
(1.00684 -0.0459322 0)
(1.00583 -0.0467149 0)
(1.00474 -0.0473967 0)
(1.0036 -0.047976 0)
(1.00241 -0.0484527 0)
(1.00117 -0.0488272 0)
(0.999898 -0.0491012 0)
(0.9986 -0.0492771 0)
(0.997285 -0.0493583 0)
(0.995961 -0.0493489 0)
(0.994635 -0.0492534 0)
(0.993314 -0.0490772 0)
(0.992005 -0.0488256 0)
(0.990714 -0.0485043 0)
(0.989445 -0.0481192 0)
(0.988205 -0.0476763 0)
(0.986996 -0.0471817 0)
(0.985822 -0.0466417 0)
(0.984685 -0.0460627 0)
(0.98359 -0.0454508 0)
(0.982536 -0.0448119 0)
(0.981527 -0.0441514 0)
(0.980563 -0.0434741 0)
(0.979642 -0.0427841 0)
(0.978762 -0.0420855 0)
(0.97792 -0.0413818 0)
(0.977115 -0.0406765 0)
(0.976346 -0.039973 0)
(0.975613 -0.0392743 0)
(0.974917 -0.0385829 0)
(0.974259 -0.0379012 0)
(0.973637 -0.0372311 0)
(0.97305 -0.0365743 0)
(0.972498 -0.0359321 0)
(0.971977 -0.0353059 0)
(0.971488 -0.0346967 0)
(0.971028 -0.0341053 0)
(0.970596 -0.0335325 0)
(0.970191 -0.0329789 0)
(1.00818 -0.00080049 0)
(1.00826 -0.00271528 0)
(1.00842 -0.00434227 0)
(1.00862 -0.00609459 0)
(1.00889 -0.0077695 0)
(1.00921 -0.00945565 0)
(1.00956 -0.011142 0)
(1.00995 -0.0128349 0)
(1.01036 -0.0145393 0)
(1.01078 -0.0162568 0)
(1.01122 -0.0179885 0)
(1.01165 -0.0197343 0)
(1.01208 -0.0214931 0)
(1.01248 -0.0232629 0)
(1.01285 -0.025041 0)
(1.01319 -0.0268237 0)
(1.01347 -0.0286068 0)
(1.0137 -0.0303851 0)
(1.01386 -0.0321532 0)
(1.01394 -0.0339047 0)
(1.01394 -0.0356328 0)
(1.01384 -0.0373305 0)
(1.01365 -0.03899 0)
(1.01336 -0.0406035 0)
(1.01296 -0.0421631 0)
(1.01245 -0.0436606 0)
(1.01183 -0.0450881 0)
(1.0111 -0.0464382 0)
(1.01027 -0.0477036 0)
(1.00933 -0.0488777 0)
(1.0083 -0.0499547 0)
(1.00718 -0.0509298 0)
(1.00597 -0.0517988 0)
(1.00469 -0.0525588 0)
(1.00334 -0.0532081 0)
(1.00194 -0.0537459 0)
(1.00049 -0.0541726 0)
(0.999003 -0.0544897 0)
(0.99749 -0.0546998 0)
(0.99596 -0.0548063 0)
(0.994421 -0.0548133 0)
(0.992884 -0.054726 0)
(0.991355 -0.0545498 0)
(0.989842 -0.0542911 0)
(0.988352 -0.0539564 0)
(0.986889 -0.0535525 0)
(0.98546 -0.0530863 0)
(0.984068 -0.0525644 0)
(0.982717 -0.0519932 0)
(0.981409 -0.0513786 0)
(0.980145 -0.0507265 0)
(0.978927 -0.0500428 0)
(0.977754 -0.0493333 0)
(0.976629 -0.0486038 0)
(0.975554 -0.0478597 0)
(0.974532 -0.0471059 0)
(0.973563 -0.0463466 0)
(0.972647 -0.0455858 0)
(0.971781 -0.0448266 0)
(0.970961 -0.0440721 0)
(0.970186 -0.0433253 0)
(0.969453 -0.0425886 0)
(0.968759 -0.0418643 0)
(0.968104 -0.0411544 0)
(0.967485 -0.0404606 0)
(0.966901 -0.0397843 0)
(0.966351 -0.0391267 0)
(0.965834 -0.0384889 0)
(0.965347 -0.0378717 0)
(1.00907 -0.000833518 0)
(1.00916 -0.00281832 0)
(1.00933 -0.0045094 0)
(1.00956 -0.00633124 0)
(1.00986 -0.00807277 0)
(1.01021 -0.00982974 0)
(1.0106 -0.0115888 0)
(1.01104 -0.0133577 0)
(1.0115 -0.0151417 0)
(1.01198 -0.016943 0)
(1.01247 -0.0187633 0)
(1.01296 -0.020603 0)
(1.01344 -0.0224614 0)
(1.01391 -0.0243372 0)
(1.01434 -0.0262279 0)
(1.01474 -0.0281304 0)
(1.01509 -0.030041 0)
(1.01537 -0.031955 0)
(1.01559 -0.0338671 0)
(1.01572 -0.0357713 0)
(1.01576 -0.0376611 0)
(1.01571 -0.0395292 0)
(1.01555 -0.041368 0)
(1.01527 -0.0431692 0)
(1.01488 -0.0449242 0)
(1.01437 -0.0466244 0)
(1.01374 -0.048261 0)
(1.01298 -0.049825 0)
(1.0121 -0.0513081 0)
(1.01111 -0.0527022 0)
(1.01 -0.0539997 0)
(1.00878 -0.0551939 0)
(1.00746 -0.0562791 0)
(1.00605 -0.0572505 0)
(1.00455 -0.0581044 0)
(1.00299 -0.0588385 0)
(1.00136 -0.0594517 0)
(0.999685 -0.059944 0)
(0.99797 -0.0603167 0)
(0.996227 -0.0605723 0)
(0.994468 -0.0607143 0)
(0.992702 -0.0607473 0)
(0.990939 -0.0606764 0)
(0.989188 -0.0605076 0)
(0.987458 -0.0602473 0)
(0.985756 -0.0599022 0)
(0.984088 -0.0594793 0)
(0.98246 -0.0589861 0)
(0.980876 -0.0584304 0)
(0.979343 -0.0578199 0)
(0.977862 -0.0571625 0)
(0.976438 -0.0564653 0)
(0.975073 -0.0557351 0)
(0.973767 -0.0549777 0)
(0.972517 -0.0541985 0)
(0.971321 -0.0534029 0)
(0.970176 -0.052596 0)
(0.96908 -0.0517827 0)
(0.968035 -0.0509675 0)
(0.967042 -0.0501545 0)
(0.9661 -0.0493473 0)
(0.965208 -0.0485488 0)
(0.964367 -0.0477617 0)
(0.963573 -0.0469883 0)
(0.962826 -0.0462306 0)
(0.962122 -0.0454903 0)
(0.96146 -0.0447689 0)
(0.960838 -0.0440678 0)
(0.960253 -0.0433879 0)
(1.00994 -0.000862303 0)
(1.01004 -0.00290685 0)
(1.01023 -0.00465334 0)
(1.01048 -0.00653547 0)
(1.01081 -0.00833505 0)
(1.0112 -0.0101544 0)
(1.01163 -0.011978 0)
(1.01211 -0.0138149 0)
(1.01262 -0.0156709 0)
(1.01316 -0.0175486 0)
(1.01371 -0.0194504 0)
(1.01426 -0.021377 0)
(1.01481 -0.0233285 0)
(1.01534 -0.025304 0)
(1.01585 -0.0273016 0)
(1.01631 -0.0293188 0)
(1.01672 -0.0313523 0)
(1.01708 -0.033398 0)
(1.01736 -0.0354511 0)
(1.01755 -0.0375061 0)
(1.01765 -0.0395566 0)
(1.01765 -0.0415959 0)
(1.01754 -0.043616 0)
(1.0173 -0.0456089 0)
(1.01694 -0.0475657 0)
(1.01644 -0.049477 0)
(1.01581 -0.0513333 0)
(1.01505 -0.0531249 0)
(1.01414 -0.0548419 0)
(1.0131 -0.0564748 0)
(1.01193 -0.0580144 0)
(1.01064 -0.0594522 0)
(1.00922 -0.0607804 0)
(1.00769 -0.0619922 0)
(1.00606 -0.0630818 0)
(1.00434 -0.064045 0)
(1.00255 -0.0648786 0)
(1.00068 -0.0655809 0)
(0.998765 -0.0661516 0)
(0.996806 -0.0665919 0)
(0.994819 -0.0669042 0)
(0.992815 -0.067092 0)
(0.990806 -0.0671601 0)
(0.988803 -0.0671141 0)
(0.986816 -0.0669608 0)
(0.984854 -0.0667073 0)
(0.982926 -0.0663615 0)
(0.981037 -0.0659313 0)
(0.979195 -0.0654246 0)
(0.977405 -0.064849 0)
(0.975668 -0.064212 0)
(0.973988 -0.0635212 0)
(0.972366 -0.0627842 0)
(0.970804 -0.0620088 0)
(0.969306 -0.0612026 0)
(0.967876 -0.0603727 0)
(0.966517 -0.0595252 0)
(0.965229 -0.0586653 0)
(0.964009 -0.057798 0)
(0.962854 -0.0569277 0)
(0.96176 -0.0560586 0)
(0.960724 -0.0551946 0)
(0.959743 -0.0543394 0)
(0.958815 -0.053496 0)
(0.957939 -0.0526674 0)
(0.957111 -0.0518557 0)
(0.956332 -0.051063 0)
(0.955597 -0.0502911 0)
(0.954907 -0.0495415 0)
(1.01079 -0.00088702 0)
(1.0109 -0.00298161 0)
(1.01111 -0.00477529 0)
(1.01138 -0.00670892 0)
(1.01174 -0.00855829 0)
(1.01217 -0.0104318 0)
(1.01265 -0.0123118 0)
(1.01318 -0.0142088 0)
(1.01374 -0.0161289 0)
(1.01433 -0.0180753 0)
(1.01494 -0.0200508 0)
(1.01556 -0.022057 0)
(1.01618 -0.0240942 0)
(1.01678 -0.0261622 0)
(1.01735 -0.0282597 0)
(1.01789 -0.0303848 0)
(1.01838 -0.0325348 0)
(1.0188 -0.0347063 0)
(1.01916 -0.0368951 0)
(1.01943 -0.0390961 0)
(1.0196 -0.0413038 0)
(1.01966 -0.0435114 0)
(1.01961 -0.0457117 0)
(1.01943 -0.0478966 0)
(1.01911 -0.0500572 0)
(1.01865 -0.052184 0)
(1.01805 -0.0542668 0)
(1.01729 -0.0562951 0)
(1.01638 -0.0582582 0)
(1.01532 -0.060145 0)
(1.01411 -0.0619449 0)
(1.01276 -0.0636474 0)
(1.01126 -0.0652428 0)
(1.00964 -0.0667219 0)
(1.00789 -0.068077 0)
(1.00603 -0.0693011 0)
(1.00407 -0.070389 0)
(1.00202 -0.0713368 0)
(0.999909 -0.072142 0)
(0.997734 -0.072804 0)
(0.995516 -0.0733234 0)
(0.993268 -0.0737025 0)
(0.991003 -0.073945 0)
(0.988736 -0.0740555 0)
(0.986477 -0.0740401 0)
(0.984238 -0.0739055 0)
(0.98203 -0.0736591 0)
(0.979861 -0.073309 0)
(0.97774 -0.0728642 0)
(0.975673 -0.0723339 0)
(0.973669 -0.071728 0)
(0.971732 -0.071056 0)
(0.969868 -0.0703267 0)
(0.968079 -0.0695482 0)
(0.966365 -0.0687278 0)
(0.964721 -0.0678727 0)
(0.963144 -0.06699 0)
(0.961632 -0.0660868 0)
(0.960186 -0.06517 0)
(0.958809 -0.0642457 0)
(0.9575 -0.0633193 0)
(0.956261 -0.0623951 0)
(0.955089 -0.0614774 0)
(0.953983 -0.0605696 0)
(0.952941 -0.0596748 0)
(0.951958 -0.0587958 0)
(0.951034 -0.0579351 0)
(0.950164 -0.0570948 0)
(0.949346 -0.0562769 0)
(1.01162 -0.0009078 0)
(1.01174 -0.00304324 0)
(1.01196 -0.00487626 0)
(1.01226 -0.00685295 0)
(1.01266 -0.0087441 0)
(1.01312 -0.0106637 0)
(1.01364 -0.0125923 0)
(1.01422 -0.0145414 0)
(1.01483 -0.0165175 0)
(1.01548 -0.0185246 0)
(1.01616 -0.020566 0)
(1.01684 -0.0226437 0)
(1.01753 -0.0247586 0)
(1.0182 -0.0269111 0)
(1.01885 -0.0291005 0)
(1.01947 -0.0313256 0)
(1.02004 -0.0335843 0)
(1.02055 -0.0358739 0)
(1.02098 -0.038191 0)
(1.02133 -0.0405312 0)
(1.02159 -0.0428895 0)
(1.02173 -0.04526 0)
(1.02175 -0.0476359 0)
(1.02164 -0.0500096 0)
(1.02139 -0.0523724 0)
(1.02098 -0.0547149 0)
(1.02042 -0.0570267 0)
(1.0197 -0.0592968 0)
(1.01881 -0.0615137 0)
(1.01775 -0.0636654 0)
(1.01653 -0.0657397 0)
(1.01514 -0.0677244 0)
(1.01359 -0.0696079 0)
(1.01188 -0.0713787 0)
(1.01004 -0.0730265 0)
(1.00805 -0.0745421 0)
(1.00595 -0.0759174 0)
(1.00374 -0.0771458 0)
(1.00143 -0.0782226 0)
(0.999044 -0.0791445 0)
(0.996596 -0.0799103 0)
(0.994101 -0.0805203 0)
(0.991575 -0.0809767 0)
(0.989032 -0.0812833 0)
(0.986488 -0.0814452 0)
(0.983955 -0.0814692 0)
(0.981447 -0.0813629 0)
(0.978975 -0.0811349 0)
(0.976549 -0.0807942 0)
(0.974177 -0.0803499 0)
(0.971866 -0.0798109 0)
(0.969621 -0.0791865 0)
(0.967444 -0.0784859 0)
(0.965338 -0.0777194 0)
(0.963309 -0.0768972 0)
(0.961364 -0.0760293 0)
(0.95951 -0.0751245 0)
(0.95775 -0.0741903 0)
(0.956081 -0.0732334 0)
(0.954499 -0.0722602 0)
(0.952998 -0.0712767 0)
(0.951575 -0.070289 0)
(0.950226 -0.0693024 0)
(0.948949 -0.068322 0)
(0.947741 -0.067352 0)
(0.9466 -0.0663961 0)
(0.945524 -0.0654576 0)
(0.944511 -0.0645394 0)
(0.943557 -0.0636438 0)
(1.01243 -0.00092484 0)
(1.01255 -0.00309247 0)
(1.01279 -0.00495739 0)
(1.01312 -0.00696913 0)
(1.01354 -0.00889438 0)
(1.01404 -0.0108524 0)
(1.01461 -0.0128217 0)
(1.01523 -0.0148151 0)
(1.0159 -0.0168394 0)
(1.01661 -0.0188992 0)
(1.01735 -0.0209983 0)
(1.0181 -0.0231392 0)
(1.01886 -0.0253234 0)
(1.0196 -0.0275518 0)
(1.02034 -0.0298244 0)
(1.02103 -0.0321406 0)
(1.02169 -0.0344991 0)
(1.02229 -0.0368979 0)
(1.02281 -0.0393342 0)
(1.02325 -0.0418047 0)
(1.0236 -0.0443052 0)
(1.02383 -0.0468305 0)
(1.02394 -0.0493747 0)
(1.02392 -0.0519307 0)
(1.02375 -0.0544906 0)
(1.02342 -0.0570452 0)
(1.02292 -0.0595844 0)
(1.02226 -0.0620971 0)
(1.02141 -0.0645713 0)
(1.02038 -0.0669943 0)
(1.01917 -0.0693527 0)
(1.01777 -0.071633 0)
(1.01619 -0.0738215 0)
(1.01443 -0.0759047 0)
(1.01251 -0.0778699 0)
(1.01043 -0.0797049 0)
(1.00819 -0.0813989 0)
(1.00583 -0.0829425 0)
(1.00335 -0.0843279 0)
(1.00076 -0.085549 0)
(0.998091 -0.0866017 0)
(0.995351 -0.0874841 0)
(0.992561 -0.088196 0)
(0.989737 -0.0887391 0)
(0.986898 -0.089117 0)
(0.984058 -0.0893348 0)
(0.981234 -0.0893991 0)
(0.978439 -0.0893176 0)
(0.975686 -0.0890994 0)
(0.972987 -0.0887548 0)
(0.970352 -0.0882951 0)
(0.967791 -0.0877322 0)
(0.965315 -0.0870779 0)
(0.962931 -0.0863428 0)
(0.96064 -0.0855367 0)
(0.958438 -0.0846685 0)
(0.956321 -0.0837478 0)
(0.954285 -0.0827845 0)
(0.952332 -0.0817885 0)
(0.950465 -0.0807689 0)
(0.948688 -0.0797335 0)
(0.947003 -0.0786892 0)
(0.945409 -0.0776417 0)
(0.943903 -0.0765965 0)
(0.942483 -0.0755583 0)
(0.941144 -0.0745315 0)
(0.939883 -0.0735198 0)
(0.938696 -0.0725268 0)
(0.93758 -0.0715556 0)
(1.0132 -0.000938412 0)
(1.01333 -0.00313025 0)
(1.01359 -0.00502013 0)
(1.01394 -0.00705946 0)
(1.01439 -0.00901165 0)
(1.01493 -0.0110007 0)
(1.01554 -0.0130034 0)
(1.01621 -0.0150335 0)
(1.01694 -0.0170984 0)