/*--------------------------------*- C++ -*----------------------------------*\
  =========                 |
  \\      /  F ield         | OpenFOAM: The Open Source CFD Toolbox
   \\    /   O peration     | Website:  https://openfoam.org
    \\  /    A nd           | Version:  10
     \\/     M anipulation  |
\*---------------------------------------------------------------------------*/
FoamFile
{
    format      ascii;
    class       volVectorField;
    location    "380";
    object      U;
}
// * * * * * * * * * * * * * * * * * * * * * * * * * * * * * * * * * * * * * //

dimensions      [0 1 -1 0 0 0 0];

internalField   nonuniform List<vector> 
66268
(
(1 -4.40039e-05 0)
(1 -0.000161498 0)
(1 -0.000257891 0)
(1 -0.000359208 0)
(1 -0.000458758 0)
(1 -0.00055726 0)
(1 -0.000655444 0)
(1 -0.000753425 0)
(1 -0.00085116 0)
(1 -0.000948548 0)
(1 -0.0010454 0)
(1 -0.00114143 0)
(1 -0.00123633 0)
(1 -0.00132971 0)
(1 -0.00142115 0)
(1 -0.00151022 0)
(1 -0.00159647 0)
(1 -0.00167948 0)
(1 -0.00175881 0)
(1 -0.00183408 0)
(1 -0.00190494 0)
(1 -0.00197106 0)
(1 -0.00203221 0)
(1 -0.00208816 0)
(1 -0.00213878 0)
(1 -0.00218397 0)
(1 -0.00222372 0)
(1 -0.00225803 0)
(1 -0.00228701 0)
(1 -0.00231076 0)
(1 -0.00232946 0)
(1 -0.0023433 0)
(1 -0.00235249 0)
(1 -0.0023573 0)
(1 -0.00235798 0)
(1 -0.00235482 0)
(1 -0.00234814 0)
(1 -0.00233823 0)
(1 -0.00232541 0)
(1 -0.00230997 0)
(1 -0.00229218 0)
(1 -0.00227231 0)
(1 -0.00225058 0)
(1 -0.00222721 0)
(1 -0.0022024 0)
(1 -0.00217636 0)
(1 -0.00214926 0)
(1 -0.00212131 0)
(0.999999 -0.00209269 0)
(0.999997 -0.00206359 0)
(0.999995 -0.00203418 0)
(0.999992 -0.00200466 0)
(0.999989 -0.00197521 0)
(0.999987 -0.00194599 0)
(0.999984 -0.00191715 0)
(0.999983 -0.00188881 0)
(0.999982 -0.00186107 0)
(0.999982 -0.001834 0)
(0.999982 -0.00180766 0)
(0.999984 -0.00178209 0)
(0.999985 -0.00175732 0)
(0.999986 -0.00173338 0)
(0.999988 -0.00171027 0)
(0.999989 -0.00168802 0)
(0.999991 -0.00166662 0)
(0.999992 -0.00164607 0)
(0.999993 -0.00162635 0)
(0.999993 -0.0016075 0)
(0.999994 -0.00158953 0)
(1.00019 -0.000130867 0)
(1.00019 -0.00047276 0)
(1.0002 -0.00075258 0)
(1.0002 -0.00104971 0)
(1.00021 -0.00134018 0)
(1.00021 -0.00162724 0)
(1.00022 -0.00191326 0)
(1.00023 -0.00219836 0)
(1.00023 -0.00248241 0)
(1.00024 -0.00276513 0)
(1.00025 -0.00304594 0)
(1.00026 -0.00332406 0)
(1.00026 -0.00359852 0)
(1.00027 -0.00386822 0)
(1.00027 -0.00413194 0)
(1.00028 -0.00438844 0)
(1.00028 -0.00463641 0)
(1.00028 -0.0048746 0)
(1.00027 -0.00510178 0)
(1.00027 -0.00531683 0)
(1.00026 -0.0055187 0)
(1.00025 -0.0057065 0)
(1.00024 -0.0058795 0)
(1.00023 -0.00603709 0)
(1.00022 -0.00617887 0)
(1.0002 -0.00630457 0)
(1.00018 -0.00641411 0)
(1.00016 -0.00650757 0)
(1.00014 -0.00658524 0)
(1.00012 -0.00664753 0)
(1.0001 -0.00669492 0)
(1.00007 -0.00672803 0)
(1.00005 -0.00674752 0)
(1.00002 -0.00675418 0)
(0.999995 -0.00674882 0)
(0.999968 -0.00673231 0)
(0.999942 -0.00670549 0)
(0.999916 -0.00666925 0)
(0.999889 -0.00662442 0)
(0.999863 -0.00657188 0)
(0.999837 -0.00651248 0)
(0.999812 -0.00644709 0)
(0.999787 -0.00637657 0)
(0.999762 -0.00630175 0)
(0.999738 -0.00622342 0)
(0.999715 -0.00614233 0)
(0.999692 -0.00605914 0)
(0.99967 -0.00597445 0)
(0.999648 -0.00588877 0)
(0.999629 -0.00580255 0)
(0.99961 -0.00571618 0)
(0.999593 -0.00562999 0)
(0.999577 -0.00554423 0)
(0.999563 -0.00545916 0)
(0.999549 -0.00537497 0)
(0.999535 -0.00529185 0)
(0.999521 -0.00521 0)
(0.999508 -0.00512958 0)
(0.999494 -0.00505074 0)
(0.999481 -0.00497363 0)
(0.999468 -0.00489836 0)
(0.999455 -0.00482504 0)
(0.999443 -0.00475374 0)
(0.999432 -0.00468454 0)
(0.999422 -0.00461748 0)
(0.999412 -0.00455262 0)
(0.999403 -0.00448996 0)
(0.999395 -0.00442956 0)
(0.999388 -0.00437149 0)
(1.00057 -0.000213299 0)
(1.00057 -0.000759738 0)
(1.00058 -0.00120655 0)
(1.0006 -0.00168548 0)
(1.00061 -0.00215102 0)
(1.00063 -0.00261082 0)
(1.00065 -0.00306878 0)
(1.00067 -0.00352481 0)
(1.00069 -0.00397873 0)
(1.00071 -0.00443012 0)
(1.00073 -0.00487808 0)
(1.00075 -0.00532135 0)
(1.00077 -0.0057584 0)
(1.00078 -0.00618748 0)
(1.00079 -0.00660668 0)
(1.0008 -0.00701399 0)
(1.0008 -0.00740735 0)
(1.00079 -0.00778474 0)
(1.00078 -0.0081442 0)
(1.00077 -0.00848389 0)
(1.00074 -0.00880217 0)
(1.00071 -0.00909757 0)
(1.00068 -0.00936887 0)
(1.00064 -0.0096151 0)
(1.0006 -0.00983558 0)
(1.00054 -0.0100299 0)
(1.00049 -0.0101978 0)
(1.00043 -0.0103396 0)
(1.00037 -0.0104555 0)
(1.0003 -0.0105464 0)
(1.00023 -0.0106129 0)
(1.00015 -0.010656 0)
(1.00008 -0.0106769 0)
(1 -0.0106767 0)
(0.999928 -0.0106568 0)
(0.999852 -0.0106185 0)
(0.999775 -0.0105634 0)
(0.999699 -0.0104928 0)
(0.999624 -0.0104084 0)
(0.999551 -0.0103116 0)
(0.999478 -0.010204 0)
(0.999407 -0.0100868 0)
(0.999339 -0.00996132 0)
(0.999272 -0.0098288 0)
(0.999207 -0.0096903 0)
(0.999145 -0.00954684 0)
(0.999085 -0.00939936 0)
(0.999028 -0.00924877 0)
(0.998973 -0.00909594 0)
(0.99892 -0.00894168 0)
(0.998869 -0.00878676 0)
(0.99882 -0.0086319 0)
(0.998773 -0.00847777 0)
(0.998729 -0.008325 0)
(0.998687 -0.00817411 0)
(0.998648 -0.00802558 0)
(0.998612 -0.0078798 0)
(0.998579 -0.00773709 0)
(0.998548 -0.00759772 0)
(0.99852 -0.00746191 0)
(0.998494 -0.00732986 0)
(0.99847 -0.00720171 0)
(0.998447 -0.00707758 0)
(0.998426 -0.00695757 0)
(0.998406 -0.00684173 0)
(0.998387 -0.00673009 0)
(0.998369 -0.00662268 0)
(0.998352 -0.00651953 0)
(0.998336 -0.00642063 0)
(1.00108 -0.000288751 0)
(1.00108 -0.00101889 0)
(1.00111 -0.0016176 0)
(1.00113 -0.00226241 0)
(1.00116 -0.00288606 0)
(1.00119 -0.00350231 0)
(1.00123 -0.00411592 0)
(1.00127 -0.00472651 0)
(1.0013 -0.00533396 0)
(1.00134 -0.0059378 0)
(1.00138 -0.00653682 0)
(1.00141 -0.00712939 0)
(1.00144 -0.00771349 0)
(1.00146 -0.00828682 0)
(1.00148 -0.00884682 0)
(1.00148 -0.00939084 0)
(1.00148 -0.0099161 0)
(1.00147 -0.0104199 0)
(1.00144 -0.0108995 0)
(1.00141 -0.0113526 0)
(1.00137 -0.0117767 0)
(1.00131 -0.0121698 0)
(1.00124 -0.0125303 0)
(1.00116 -0.0128567 0)
(1.00108 -0.0131481 0)
(1.00098 -0.0134038 0)
(1.00087 -0.0136234 0)
(1.00075 -0.0138072 0)
(1.00063 -0.0139555 0)
(1.0005 -0.0140691 0)
(1.00037 -0.014149 0)
(1.00023 -0.0141966 0)
(1.00009 -0.0142132 0)
(0.999945 -0.0142006 0)
(0.9998 -0.0141606 0)
(0.999655 -0.0140951 0)
(0.999511 -0.0140062 0)
(0.999368 -0.0138959 0)
(0.999227 -0.0137662 0)
(0.999088 -0.013619 0)
(0.998953 -0.0134564 0)
(0.99882 -0.0132801 0)
(0.998692 -0.0130921 0)
(0.998567 -0.0128941 0)
(0.998447 -0.0126879 0)
(0.998332 -0.0124751 0)
(0.99822 -0.0122573 0)
(0.998114 -0.012036 0)
(0.998012 -0.0118125 0)
(0.997915 -0.0115879 0)
(0.997824 -0.0113634 0)
(0.997737 -0.0111398 0)
(0.997655 -0.0109179 0)
(0.997578 -0.0106984 0)
(0.997505 -0.0104819 0)
(0.997436 -0.0102689 0)
(0.997369 -0.01006 0)
(0.997305 -0.00985553 0)
(0.997244 -0.00965587 0)
(0.997186 -0.00946135 0)
(0.99713 -0.00927221 0)
(0.997077 -0.00908866 0)
(0.997027 -0.00891083 0)
(0.99698 -0.00873883 0)
(0.996936 -0.00857274 0)
(0.996895 -0.00841259 0)
(0.996856 -0.0082584 0)
(0.99682 -0.00811017 0)
(0.996786 -0.00796794 0)
(1.00167 -0.000356636 0)
(1.00168 -0.00125204 0)
(1.00172 -0.00199057 0)
(1.00175 -0.00278626 0)
(1.00179 -0.0035529 0)
(1.00185 -0.00431147 0)
(1.0019 -0.00506669 0)
(1.00196 -0.0058179 0)
(1.00202 -0.00656527 0)
(1.00208 -0.00730829 0)
(1.00213 -0.00804552 0)
(1.00218 -0.00877504 0)
(1.00222 -0.00949443 0)
(1.00226 -0.0102009 0)
(1.00228 -0.0108914 0)
(1.00229 -0.0115627 0)
(1.00228 -0.0122112 0)
(1.00226 -0.0128338 0)
(1.00223 -0.013427 0)
(1.00217 -0.0139877 0)
(1.0021 -0.014513 0)
(1.00201 -0.0150002 0)
(1.00191 -0.015447 0)
(1.00179 -0.0158517 0)
(1.00165 -0.0162128 0)
(1.00149 -0.0165292 0)
(1.00132 -0.0168006 0)
(1.00114 -0.0170268 0)
(1.00095 -0.0172082 0)
(1.00074 -0.0173457 0)
(1.00053 -0.0174404 0)
(1.00031 -0.0174938 0)
(1.00009 -0.0175079 0)
(0.999857 -0.0174845 0)
(0.999627 -0.0174261 0)
(0.999395 -0.0173349 0)
(0.999165 -0.0172135 0)
(0.998935 -0.0170644 0)
(0.998709 -0.0168902 0)
(0.998486 -0.0166935 0)
(0.998268 -0.0164769 0)
(0.998054 -0.016243 0)
(0.997847 -0.0159942 0)
(0.997645 -0.0157328 0)
(0.99745 -0.015461 0)
(0.997261 -0.0151809 0)
(0.99708 -0.0148941 0)
(0.996905 -0.0146026 0)
(0.996738 -0.0143078 0)
(0.996578 -0.0140113 0)
(0.996424 -0.0137143 0)
(0.996277 -0.0134182 0)
(0.996136 -0.0131241 0)
(0.996003 -0.0128331 0)
(0.995876 -0.0125461 0)
(0.995756 -0.0122639 0)
(0.995643 -0.0119871 0)
(0.995538 -0.0117162 0)
(0.99544 -0.0114518 0)
(0.995349 -0.0111942 0)
(0.995263 -0.0109436 0)
(0.995183 -0.0107004 0)
(0.995108 -0.0104648 0)
(0.995037 -0.0102369 0)
(0.99497 -0.0100168 0)
(0.994908 -0.00980463 0)
(0.994849 -0.00960042 0)
(0.994794 -0.00940419 0)
(0.994742 -0.00921593 0)
(1.00232 -0.000419238 0)
(1.00234 -0.0014671 0)
(1.00238 -0.00233693 0)
(1.00243 -0.00327259 0)
(1.00249 -0.00417171 0)
(1.00256 -0.00506296 0)
(1.00264 -0.00595019 0)
(1.00272 -0.00683267 0)
(1.00281 -0.00771104 0)
(1.00289 -0.00858474 0)
(1.00296 -0.0094522 0)
(1.00304 -0.0103113 0)
(1.0031 -0.0111593 0)
(1.00314 -0.0119931 0)
(1.00318 -0.0128091 0)
(1.00319 -0.0136035 0)
(1.00319 -0.0143725 0)
(1.00316 -0.015112 0)
(1.00312 -0.0158181 0)
(1.00304 -0.0164869 0)
(1.00295 -0.017115 0)
(1.00282 -0.017699 0)
(1.00268 -0.0182361 0)
(1.00251 -0.0187239 0)
(1.00231 -0.0191604 0)
(1.00209 -0.0195443 0)
(1.00185 -0.0198747 0)
(1.00159 -0.0201513 0)
(1.00132 -0.0203743 0)
(1.00102 -0.0205445 0)
(1.00072 -0.020663 0)
(1.0004 -0.0207315 0)
(1.00008 -0.020752 0)
(0.99975 -0.0207267 0)
(0.999416 -0.0206583 0)
(0.99908 -0.0205495 0)
(0.998744 -0.0204034 0)
(0.99841 -0.0202229 0)
(0.998079 -0.0200112 0)
(0.997752 -0.0197714 0)
(0.997432 -0.0195067 0)
(0.997119 -0.0192201 0)
(0.996814 -0.0189144 0)
(0.996517 -0.0185926 0)
(0.99623 -0.0182572 0)
(0.995954 -0.0179109 0)
(0.995687 -0.0175561 0)
(0.995431 -0.0171951 0)
(0.995187 -0.0168298 0)
(0.994954 -0.0164623 0)
(0.994732 -0.0160942 0)
(0.994522 -0.0157271 0)
(0.994324 -0.0153621 0)
(0.994137 -0.0150007 0)
(0.993961 -0.0146437 0)
(0.993793 -0.0142922 0)
(0.993634 -0.0139471 0)
(0.993482 -0.0136091 0)
(0.993338 -0.013279 0)
(0.993202 -0.0129573 0)
(0.993072 -0.0126445 0)
(0.99295 -0.0123409 0)
(0.992834 -0.0120467 0)
(0.992725 -0.0117623 0)
(0.992624 -0.0114877 0)
(0.992528 -0.0112229 0)
(0.992438 -0.010968 0)
(0.992355 -0.0107231 0)
(0.992276 -0.010488 0)
(1.00302 -0.000479736 0)
(1.00305 -0.00167296 0)
(1.0031 -0.00266848 0)
(1.00316 -0.00373795 0)
(1.00325 -0.00476386 0)
(1.00334 -0.00578258 0)
(1.00344 -0.00679665 0)
(1.00355 -0.00780557 0)
(1.00366 -0.00881045 0)
(1.00377 -0.00981077 0)
(1.00388 -0.0108049 0)
(1.00397 -0.0117906 0)
(1.00406 -0.012765 0)
(1.00412 -0.0137247 0)
(1.00417 -0.0146657 0)
(1.0042 -0.0155839 0)
(1.0042 -0.0164749 0)
(1.00417 -0.0173341 0)
(1.00411 -0.0181571 0)
(1.00402 -0.0189394 0)
(1.0039 -0.0196769 0)
(1.00374 -0.0203656 0)
(1.00355 -0.021002 0)
(1.00333 -0.0215832 0)
(1.00307 -0.0221065 0)
(1.00279 -0.0225701 0)
(1.00247 -0.0229726 0)
(1.00213 -0.0233133 0)
(1.00176 -0.0235921 0)
(1.00137 -0.0238094 0)
(1.00096 -0.0239662 0)
(1.00053 -0.0240642 0)
(1.00009 -0.0241053 0)
(0.999647 -0.024092 0)
(0.999194 -0.0240271 0)
(0.998737 -0.0239137 0)
(0.998278 -0.023755 0)
(0.997822 -0.0235547 0)
(0.997369 -0.0233162 0)
(0.996922 -0.0230432 0)
(0.996483 -0.0227392 0)
(0.996054 -0.0224078 0)
(0.995635 -0.0220526 0)
(0.995229 -0.0216769 0)
(0.994835 -0.0212839 0)
(0.994454 -0.0208766 0)
(0.994088 -0.0204579 0)
(0.993736 -0.0200305 0)
(0.993398 -0.0195967 0)
(0.993075 -0.019159 0)
(0.992766 -0.0187194 0)
(0.99247 -0.0182799 0)
(0.992188 -0.0178426 0)
(0.991919 -0.0174089 0)
(0.991664 -0.0169805 0)
(0.991424 -0.0165586 0)
(0.991197 -0.0161442 0)
(0.990985 -0.0157381 0)
(0.990786 -0.0153412 0)
(0.9906 -0.014954 0)
(0.990426 -0.014577 0)
(0.990263 -0.0142106 0)
(0.990109 -0.0138554 0)
(0.989965 -0.0135114 0)
(0.98983 -0.0131791 0)
(0.989703 -0.0128585 0)
(0.989583 -0.0125496 0)
(0.989471 -0.0122527 0)
(0.989366 -0.0119676 0)
(1.00378 -0.000539884 0)
(1.00381 -0.00187433 0)
(1.00388 -0.0029915 0)
(1.00396 -0.00419131 0)
(1.00406 -0.00534084 0)
(1.00418 -0.00648414 0)
(1.00431 -0.00762224 0)
(1.00445 -0.00875509 0)
(1.00459 -0.00988433 0)
(1.00473 -0.0110095 0)
(1.00487 -0.012129 0)
(1.00499 -0.0132405 0)
(1.0051 -0.0143412 0)
(1.00519 -0.0154275 0)
(1.00526 -0.0164952 0)
(1.0053 -0.0175397 0)
(1.00531 -0.0185565 0)
(1.00528 -0.0195404 0)
(1.00521 -0.0204866 0)
(1.00511 -0.0213899 0)
(1.00496 -0.0222457 0)
(1.00477 -0.0230494 0)
(1.00454 -0.0237968 0)
(1.00426 -0.0244842 0)
(1.00395 -0.0251084 0)
(1.00359 -0.0256668 0)
(1.00319 -0.0261574 0)
(1.00275 -0.0265788 0)
(1.00229 -0.0269305 0)
(1.00179 -0.0272124 0)
(1.00127 -0.0274252 0)
(1.00072 -0.0275703 0)
(1.00016 -0.0276495 0)
(0.999583 -0.0276652 0)
(0.998997 -0.0276203 0)
(0.998405 -0.0275179 0)
(0.99781 -0.0273616 0)
(0.997216 -0.0271551 0)
(0.996626 -0.0269023 0)
(0.996043 -0.0266074 0)
(0.995469 -0.0262743 0)
(0.994907 -0.0259073 0)
(0.994358 -0.0255103 0)
(0.993824 -0.0250873 0)
(0.993306 -0.0246421 0)
(0.992805 -0.0241785 0)
(0.992323 -0.0237 0)
(0.991858 -0.02321 0)
(0.991414 -0.0227116 0)
(0.990988 -0.0222076 0)
(0.990583 -0.0217006 0)
(0.990199 -0.021193 0)
(0.989835 -0.0206866 0)
(0.989491 -0.0201834 0)
(0.989166 -0.0196849 0)
(0.988858 -0.0191926 0)
(0.988565 -0.018708 0)
(0.988287 -0.0182322 0)
(0.988023 -0.0177665 0)
(0.987773 -0.0173117 0)
(0.987536 -0.0168687 0)
(0.987312 -0.0164381 0)
(0.987101 -0.0160203 0)
(0.986903 -0.0156158 0)
(0.986717 -0.0152246 0)
(0.986543 -0.0148471 0)
(0.98638 -0.0144834 0)
(0.986227 -0.0141334 0)
(0.986085 -0.0137972 0)
(1.0046 -0.000599437 0)
(1.00463 -0.00207074 0)
(1.00471 -0.00330561 0)
(1.00481 -0.00463224 0)
(1.00493 -0.00590201 0)
(1.00508 -0.00716682 0)
(1.00524 -0.00842596 0)
(1.00541 -0.00968007 0)
(1.00559 -0.0109313 0)
(1.00576 -0.0121792 0)
(1.00593 -0.0134224 0)
(1.00608 -0.0146588 0)
(1.00622 -0.0158854 0)
(1.00634 -0.0170986 0)
(1.00643 -0.018294 0)
(1.00649 -0.0194672 0)
(1.00651 -0.0206129 0)
(1.00648 -0.021726 0)
(1.00642 -0.0228011 0)
(1.0063 -0.0238326 0)
(1.00613 -0.0248152 0)
(1.00591 -0.0257439 0)
(1.00564 -0.0266136 0)
(1.00531 -0.02742 0)
(1.00493 -0.0281592 0)
(1.0045 -0.0288276 0)
(1.00402 -0.0294226 0)
(1.00349 -0.0299421 0)
(1.00293 -0.0303847 0)
(1.00232 -0.0307499 0)
(1.00168 -0.0310377 0)
(1.001 -0.031249 0)
(1.00031 -0.0313853 0)
(0.999594 -0.0314487 0)
(0.998864 -0.031442 0)
(0.998125 -0.0313682 0)
(0.99738 -0.031231 0)
(0.996635 -0.0310345 0)
(0.995892 -0.0307829 0)
(0.995157 -0.0304806 0)
(0.994432 -0.0301322 0)
(0.99372 -0.0297425 0)
(0.993023 -0.0293159 0)
(0.992344 -0.0288571 0)
(0.991685 -0.0283704 0)
(0.991047 -0.0278602 0)
(0.990431 -0.0273303 0)
(0.989838 -0.0267846 0)
(0.989268 -0.0262265 0)
(0.988722 -0.0256595 0)
(0.988199 -0.0250865 0)
(0.987699 -0.0245106 0)
(0.987221 -0.0239344 0)
(0.986766 -0.0233606 0)
(0.986332 -0.0227913 0)
(0.985923 -0.0222286 0)
(0.985537 -0.021674 0)
(0.985174 -0.0211289 0)
(0.984834 -0.0205944 0)
(0.984516 -0.0200715 0)
(0.984218 -0.0195611 0)
(0.983938 -0.019064 0)
(0.983675 -0.0185808 0)
(0.983429 -0.0181121 0)
(0.983196 -0.0176584 0)
(0.982978 -0.01722 0)
(0.982774 -0.0167971 0)
(0.982581 -0.0163899 0)
(0.982401 -0.0159985 0)
(1.00545 -0.00065707 0)
(1.00549 -0.00225883 0)
(1.00558 -0.00360637 0)
(1.0057 -0.00505453 0)
(1.00585 -0.00643935 0)
(1.00602 -0.00782084 0)
(1.00622 -0.00919634 0)
(1.00642 -0.0105673 0)
(1.00663 -0.0119363 0)
(1.00684 -0.0133031 0)
(1.00704 -0.0146666 0)
(1.00724 -0.0160248 0)
(1.00741 -0.0173749 0)
(1.00756 -0.0187133 0)
(1.00767 -0.0200357 0)
(1.00775 -0.0213374 0)
(1.00779 -0.0226132 0)
(1.00777 -0.0238576 0)
(1.00771 -0.025065 0)
(1.00759 -0.0262296 0)
(1.00741 -0.0273454 0)
(1.00716 -0.0284068 0)
(1.00685 -0.0294083 0)
(1.00648 -0.0303447 0)
(1.00604 -0.0312112 0)
(1.00554 -0.0320037 0)
(1.00498 -0.0327184 0)
(1.00437 -0.0333525 0)
(1.0037 -0.0339036 0)
(1.00298 -0.0343705 0)
(1.00221 -0.0347524 0)
(1.00141 -0.0350494 0)
(1.00058 -0.0352625 0)
(0.999715 -0.0353934 0)
(0.998833 -0.0354445 0)
(0.997935 -0.0354187 0)
(0.997029 -0.0353196 0)
(0.996118 -0.0351511 0)
(0.995209 -0.0349178 0)
(0.994305 -0.0346242 0)
(0.993412 -0.0342753 0)
(0.992533 -0.033876 0)
(0.991671 -0.0334313 0)
(0.99083 -0.0329464 0)
(0.990011 -0.0324263 0)
(0.989218 -0.0318757 0)
(0.988451 -0.0312996 0)
(0.987711 -0.0307026 0)
(0.987001 -0.030089 0)
(0.986321 -0.0294631 0)
(0.985671 -0.0288284 0)
(0.985053 -0.0281885 0)
(0.984467 -0.0275463 0)
(0.983912 -0.0269044 0)
(0.983386 -0.0262653 0)
(0.982887 -0.0256311 0)
(0.982414 -0.0250041 0)
(0.981963 -0.0243861 0)
(0.981534 -0.0237792 0)
(0.981127 -0.0231847 0)
(0.980742 -0.0226039 0)
(0.980379 -0.022038 0)
(0.980036 -0.0214876 0)
(0.979715 -0.0209534 0)
(0.979414 -0.0204358 0)
(0.979131 -0.0199354 0)
(0.978866 -0.0194523 0)
(0.978619 -0.0189867 0)
(0.978387 -0.0185388 0)
(1.00632 -0.000711488 0)
(1.00637 -0.0024351 0)
(1.00648 -0.00388876 0)
(1.00662 -0.00545113 0)
(1.00679 -0.00694385 0)
(1.007 -0.00843525 0)
(1.00722 -0.00992044 0)
(1.00746 -0.0114018 0)
(1.00771 -0.0128823 0)
(1.00796 -0.014362 0)
(1.0082 -0.0158402 0)
(1.00843 -0.017315 0)
(1.00864 -0.0187839 0)
(1.00883 -0.0202433 0)
(1.00897 -0.0216891 0)
(1.00908 -0.0231168 0)
(1.00914 -0.024521 0)
(1.00914 -0.0258963 0)
(1.00909 -0.0272367 0)
(1.00897 -0.0285363 0)
(1.00878 -0.0297888 0)
(1.00852 -0.0309881 0)
(1.00818 -0.0321281 0)
(1.00777 -0.0332029 0)
(1.00729 -0.0342071 0)
(1.00672 -0.0351354 0)
(1.00609 -0.0359834 0)
(1.00539 -0.0367471 0)
(1.00462 -0.0374233 0)
(1.00379 -0.0380095 0)
(1.0029 -0.0385043 0)
(1.00197 -0.0389067 0)
(1.00099 -0.039217 0)
(0.999976 -0.0394361 0)
(0.998933 -0.0395658 0)
(0.997869 -0.0396086 0)
(0.99679 -0.0395677 0)
(0.995702 -0.0394469 0)
(0.994613 -0.0392506 0)
(0.993527 -0.0389837 0)
(0.99245 -0.0386511 0)
(0.991388 -0.0382584 0)
(0.990344 -0.0378111 0)
(0.989323 -0.0373148 0)
(0.988327 -0.0367751 0)
(0.98736 -0.0361976 0)
(0.986424 -0.0355876 0)
(0.98552 -0.0349501 0)
(0.98465 -0.0342899 0)
(0.983814 -0.0336116 0)
(0.983013 -0.0329195 0)
(0.982244 -0.0322177 0)
(0.981509 -0.0315101 0)
(0.980805 -0.0308004 0)
(0.980136 -0.0300921 0)
(0.9795 -0.029388 0)
(0.978901 -0.0286907 0)
(0.978337 -0.0280022 0)
(0.977809 -0.0273242 0)
(0.977313 -0.0266584 0)
(0.976847 -0.0260062 0)
(0.97641 -0.0253689 0)
(0.975999 -0.0247475 0)
(0.975612 -0.0241433 0)
(0.975249 -0.0235569 0)
(0.974907 -0.0229889 0)
(0.974586 -0.02244 0)
(0.974284 -0.0219105 0)
(0.974001 -0.0214007 0)
(1.00722 -0.000761973 0)
(1.00727 -0.00259751 0)
(1.0074 -0.00414956 0)
(1.00755 -0.00581749 0)
(1.00776 -0.00740977 0)
(1.00799 -0.00900298 0)
(1.00825 -0.0105899 0)
(1.00853 -0.0121737 0)
(1.00881 -0.0137581 0)
(1.00911 -0.0153433 0)
(1.00939 -0.0169289 0)
(1.00966 -0.0185134 0)
(1.00991 -0.0200944 0)
(1.01014 -0.0216688 0)
(1.01032 -0.0232326 0)
(1.01046 -0.0247814 0)
(1.01055 -0.02631 0)
(1.01058 -0.0278131 0)
(1.01054 -0.0292848 0)
(1.01043 -0.0307188 0)
(1.01024 -0.0321089 0)
(1.00997 -0.0334485 0)
(1.00962 -0.0347311 0)
(1.00918 -0.0359502 0)
(1.00865 -0.0370997 0)
(1.00804 -0.0381736 0)
(1.00734 -0.0391665 0)
(1.00655 -0.0400732 0)
(1.00569 -0.0408896 0)
(1.00476 -0.0416121 0)
(1.00375 -0.0422379 0)
(1.00269 -0.0427652 0)
(1.00156 -0.0431929 0)
(1.0004 -0.0435212 0)
(0.999191 -0.0437507 0)
(0.997955 -0.0438834 0)
(0.996695 -0.0439219 0)
(0.995422 -0.0438695 0)
(0.994141 -0.0437303 0)
(0.99286 -0.043509 0)
(0.991586 -0.0432108 0)
(0.990325 -0.0428411 0)
(0.989082 -0.0424057 0)
(0.987864 -0.0419105 0)
(0.986673 -0.0413618 0)
(0.985513 -0.0407654 0)
(0.984388 -0.0401276 0)
(0.983301 -0.0394544 0)
(0.982252 -0.0387516 0)
(0.981245 -0.0380248 0)
(0.98028 -0.0372794 0)
(0.979359 -0.0365201 0)
(0.978483 -0.0357513 0)
(0.977652 -0.0349768 0)
(0.976864 -0.0342 0)
(0.976115 -0.0334242 0)
(0.975403 -0.0326526 0)
(0.974723 -0.0318881 0)
(0.974077 -0.0311337 0)
(0.973462 -0.0303917 0)
(0.97288 -0.0296642 0)
(0.972331 -0.0289527 0)
(0.971813 -0.0282585 0)
(0.971327 -0.0275829 0)
(0.97087 -0.0269266 0)
(0.970443 -0.0262903 0)
(0.970042 -0.0256747 0)
(0.969667 -0.0250801 0)
(0.969316 -0.024507 0)
(1.00812 -0.000808383 0)
(1.00818 -0.00274567 0)
(1.00832 -0.00438793 0)
(1.0085 -0.00615239 0)
(1.00873 -0.00783558 0)
(1.00899 -0.00952211 0)
(1.00929 -0.0112023 0)
(1.0096 -0.0128803 0)
(1.00993 -0.0145602 0)
(1.01026 -0.0162428 0)
(1.01059 -0.0179277 0)
(1.01091 -0.0196141 0)
(1.01121 -0.0212998 0)
(1.01147 -0.0229818 0)
(1.0117 -0.0246568 0)
(1.01187 -0.0263204 0)
(1.012 -0.0279679 0)
(1.01205 -0.029594 0)
(1.01204 -0.031193 0)
(1.01195 -0.0327588 0)
(1.01177 -0.034285 0)
(1.0115 -0.035765 0)
(1.01114 -0.0371919 0)
(1.01069 -0.038559 0)
(1.01013 -0.0398593 0)
(1.00947 -0.0410863 0)
(1.00872 -0.0422335 0)
(1.00786 -0.0432949 0)
(1.00692 -0.0442651 0)
(1.00589 -0.0451393 0)
(1.00477 -0.0459134 0)
(1.00358 -0.0465841 0)
(1.00232 -0.0471494 0)
(1.001 -0.0476078 0)
(0.999631 -0.0479591 0)
(0.998219 -0.0482041 0)
(0.996775 -0.0483445 0)
(0.995308 -0.048383 0)
(0.993826 -0.048323 0)
(0.992339 -0.0481691 0)
(0.990855 -0.047926 0)
(0.989381 -0.0475996 0)
(0.987924 -0.0471957 0)
(0.98649 -0.0467208 0)
(0.985085 -0.0461816 0)
(0.983715 -0.0455847 0)
(0.982382 -0.0449369 0)
(0.98109 -0.0442445 0)
(0.979842 -0.0435138 0)
(0.97864 -0.0427507 0)
(0.977484 -0.0419609 0)
(0.976373 -0.0411499 0)
(0.975307 -0.0403232 0)
(0.974285 -0.0394858 0)
(0.973309 -0.0386428 0)
(0.972381 -0.0377986 0)
(0.971504 -0.0369569 0)
(0.970677 -0.0361209 0)
(0.969901 -0.0352932 0)
(0.969173 -0.0344762 0)
(0.968488 -0.0336722 0)
(0.967844 -0.0328833 0)
(0.967237 -0.0321114 0)
(0.966666 -0.0313581 0)
(0.966128 -0.0306249 0)
(0.965621 -0.0299129 0)
(0.965146 -0.029223 0)
(0.964699 -0.028556 0)
(0.964279 -0.0279124 0)
(1.00902 -0.000850899 0)
(1.00909 -0.00288024 0)
(1.00925 -0.0046047 0)
(1.00944 -0.006457 0)
(1.0097 -0.00822278 0)
(1.01 -0.00999436 0)
(1.01033 -0.0117595 0)
(1.01068 -0.0135236 0)
(1.01105 -0.0152909 0)
(1.01143 -0.0170626 0)
(1.0118 -0.0188389 0)
(1.01217 -0.0206191 0)
(1.01251 -0.0224015 0)
(1.01282 -0.0241837 0)
(1.01309 -0.0259624 0)
(1.01331 -0.0277338 0)
(1.01347 -0.0294935 0)
(1.01357 -0.0312366 0)
(1.01359 -0.0329578 0)
(1.01352 -0.0346511 0)
(1.01337 -0.0363103 0)
(1.01311 -0.0379289 0)
(1.01275 -0.0394999 0)
(1.01229 -0.0410162 0)
(1.01171 -0.0424707 0)
(1.01103 -0.043856 0)
(1.01023 -0.045165 0)
(1.00932 -0.0463908 0)
(1.00831 -0.0475266 0)
(1.00719 -0.0485665 0)
(1.00597 -0.049505 0)
(1.00466 -0.0503375 0)
(1.00327 -0.0510601 0)
(1.0018 -0.0516702 0)
(1.00027 -0.052166 0)
(0.998687 -0.0525469 0)
(0.997057 -0.0528135 0)
(0.995392 -0.0529673 0)
(0.993703 -0.053011 0)
(0.992001 -0.0529482 0)
(0.990295 -0.0527834 0)
(0.988595 -0.0525218 0)
(0.986908 -0.0521693 0)
(0.985243 -0.0517322 0)
(0.983607 -0.0512172 0)
(0.982006 -0.0506314 0)
(0.980445 -0.0499819 0)
(0.978929 -0.0492761 0)
(0.977461 -0.0485214 0)
(0.976045 -0.0477252 0)
(0.974684 -0.0468946 0)
(0.97338 -0.0460364 0)
(0.972135 -0.0451565 0)
(0.970952 -0.0442606 0)
(0.969827 -0.0433534 0)
(0.968757 -0.0424395 0)
(0.967736 -0.0415234 0)
(0.966762 -0.0406096 0)
(0.965833 -0.0397021 0)
(0.964949 -0.0388047 0)
(0.964111 -0.0379204 0)
(0.963319 -0.0370519 0)
(0.962572 -0.0362012 0)
(0.961871 -0.0353701 0)
(0.961212 -0.0345601 0)
(0.960594 -0.0337723 0)
(0.960015 -0.033008 0)
(0.959473 -0.0322679 0)
(0.958965 -0.0315529 0)
(1.00992 -0.000889824 0)
(1.01 -0.00300229 0)
(1.01017 -0.00480149 0)
(1.01039 -0.00673353 0)
(1.01067 -0.00857416 0)
(1.011 -0.0104231 0)
(1.01136 -0.0122656 0)
(1.01176 -0.014108 0)
(1.01217 -0.015955 0)
(1.01259 -0.0178082 0)
(1.01301 -0.019668 0)
(1.01343 -0.0215343 0)
(1.01382 -0.0234058 0)
(1.01418 -0.0252803 0)
(1.0145 -0.0271552 0)
(1.01477 -0.0290271 0)
(1.01497 -0.030892 0)
(1.01511 -0.0327455 0)
(1.01517 -0.0345827 0)
(1.01514 -0.0363982 0)
(1.01501 -0.038186 0)
(1.01478 -0.0399398 0)
(1.01444 -0.0416529 0)
(1.01398 -0.0433181 0)
(1.0134 -0.0449281 0)
(1.0127 -0.0464751 0)
(1.01187 -0.0479515 0)
(1.01092 -0.0493493 0)
(1.00985 -0.0506611 0)
(1.00866 -0.0518794 0)
(1.00735 -0.0529975 0)
(1.00594 -0.0540091 0)
(1.00443 -0.0549089 0)
(1.00282 -0.0556923 0)
(1.00114 -0.0563559 0)
(0.999381 -0.0568976 0)
(0.997565 -0.0573161 0)
(0.995702 -0.0576117 0)
(0.993803 -0.0577857 0)
(0.991879 -0.0578408 0)
(0.989943 -0.0577807 0)
(0.988005 -0.0576099 0)
(0.986075 -0.0573342 0)
(0.984162 -0.05696 0)
(0.982277 -0.0564944 0)
(0.980426 -0.0559449 0)
(0.978616 -0.0553193 0)
(0.976853 -0.0546255 0)
(0.975143 -0.0538712 0)
(0.973488 -0.0530638 0)
(0.97189 -0.0522106 0)
(0.970351 -0.0513185 0)
(0.96887 -0.0503946 0)
(0.967446 -0.049446 0)
(0.966082 -0.0484795 0)
(0.964781 -0.0475015 0)
(0.963548 -0.0465177 0)
(0.962385 -0.0455329 0)
(0.961291 -0.0445509 0)
(0.960263 -0.0435755 0)
(0.959295 -0.04261 0)
(0.958383 -0.0416578 0)
(0.957523 -0.0407217 0)
(0.956712 -0.0398045 0)
(0.955948 -0.0389084 0)
(0.955228 -0.0380353 0)
(0.954551 -0.0371867 0)
(0.953914 -0.0363641 0)
(0.953317 -0.0355685 0)
(1.0108 -0.000925462 0)
(1.01089 -0.00311292 0)
(1.01108 -0.00497999 0)
(1.01132 -0.00698438 0)
(1.01162 -0.00889281 0)
(1.01199 -0.010812 0)
(1.01239 -0.0127248 0)
(1.01282 -0.0146384 0)
(1.01328 -0.016558 0)
(1.01375 -0.0184854 0)
(1.01421 -0.0204216 0)
(1.01468 -0.0223667 0)
(1.01512 -0.0243199 0)
(1.01553 -0.0262794 0)
(1.0159 -0.0282431 0)
(1.01622 -0.0302081 0)
(1.01648 -0.0321711 0)
(1.01667 -0.034128 0)
(1.01677 -0.0360747 0)
(1.01678 -0.0380062 0)
(1.01669 -0.0399171 0)
(1.01649 -0.0418017 0)
(1.01618 -0.0436535 0)
(1.01574 -0.0454655 0)
(1.01517 -0.0472306 0)
(1.01447 -0.0489408 0)
(1.01363 -0.0505881 0)
(1.01266 -0.052164 0)
(1.01154 -0.0536601 0)
(1.0103 -0.055068 0)
(1.00892 -0.0563795 0)
(1.00742 -0.0575868 0)
(1.0058 -0.0586827 0)
(1.00407 -0.059661 0)
(1.00224 -0.0605162 0)
(1.00032 -0.0612443 0)
(0.998323 -0.061842 0)
(0.996264 -0.062308 0)
(0.994154 -0.0626417 0)
(0.992007 -0.0628444 0)
(0.989834 -0.0629184 0)
(0.987649 -0.0628674 0)
(0.985464 -0.0626961 0)
(0.983291 -0.0624103 0)
(0.98114 -0.0620165 0)
(0.979021 -0.0615219 0)
(0.976943 -0.0609342 0)
(0.974913 -0.0602618 0)
(0.972937 -0.0595134 0)
(0.971022 -0.0586979 0)
(0.969172 -0.0578247 0)
(0.967392 -0.0569027 0)
(0.965687 -0.0559405 0)
(0.964059 -0.0549457 0)
(0.962509 -0.0539252 0)
(0.961032 -0.0528851 0)
(0.959622 -0.0518315 0)
(0.958274 -0.0507707 0)
(0.956985 -0.0497087 0)
(0.955756 -0.0486508 0)
(0.954589 -0.0476019 0)
(0.953485 -0.0465658 0)
(0.952445 -0.0455458 0)
(0.951467 -0.0445447 0)
(0.950548 -0.0435649 0)
(0.949686 -0.0426084 0)
(0.948877 -0.0416772 0)
(0.948119 -0.0407728 0)
(0.947409 -0.0398965 0)
(1.01167 -0.000958072 0)
(1.01177 -0.00321313 0)
(1.01197 -0.0051418 0)
(1.01223 -0.00721178 0)
(1.01256 -0.00918156 0)
(1.01296 -0.0111646 0)
(1.01339 -0.0131412 0)
(1.01387 -0.0151196 0)
(1.01437 -0.0171052 0)
(1.01488 -0.0191003 0)
(1.0154 -0.0211061 0)
(1.01591 -0.0231232 0)
(1.0164 -0.0251511 0)
(1.01687 -0.0271887 0)
(1.01729 -0.0292342 0)
(1.01767 -0.0312852 0)
(1.01798 -0.033339 0)
(1.01822 -0.0353923 0)
(1.01837 -0.0374415 0)
(1.01844 -0.0394824 0)
(1.01839 -0.0415103 0)
(1.01824 -0.0435201 0)
(1.01796 -0.0455059 0)
(1.01755 -0.0474613 0)
(1.01701 -0.0493793 0)
(1.01632 -0.0512524 0)
(1.01549 -0.0530722 0)
(1.01451 -0.0548301 0)
(1.01337 -0.056517 0)
(1.01209 -0.0581235 0)
(1.01066 -0.0596404 0)
(1.00909 -0.0610583 0)
(1.00738 -0.0623685 0)
(1.00554 -0.0635625 0)
(1.00358 -0.0646331 0)
(1.00151 -0.0655737 0)
(0.999349 -0.0663792 0)
(0.997103 -0.0670458 0)
(0.994786 -0.0675709 0)
(0.992415 -0.0679537 0)
(0.990004 -0.068195 0)
(0.987567 -0.0682969 0)
(0.985118 -0.068263 0)
(0.982671 -0.0680985 0)
(0.980239 -0.0678096 0)
(0.977834 -0.0674038 0)
(0.975467 -0.0668892 0)
(0.973146 -0.0662748 0)
(0.970881 -0.0655696 0)
(0.968678 -0.0647825 0)
(0.966542 -0.0639224 0)
(0.964476 -0.0629979 0)
(0.962482 -0.0620175 0)
(0.960559 -0.0609902 0)
(0.958711 -0.0599252 0)
(0.956941 -0.0588315 0)
(0.955258 -0.0577176 0)
(0.953667 -0.0565904 0)
(0.952169 -0.0554559 0)
(0.950758 -0.0543195 0)
(0.949429 -0.0531863 0)
(0.948175 -0.052061 0)
(0.946991 -0.0509484 0)
(0.945873 -0.0498524 0)
(0.944819 -0.0487768 0)
(0.943825 -0.0477246 0)
(0.94289 -0.0466982 0)
(0.942011 -0.0456999 0)
(0.941186 -0.0447316 0)
(1.01253 -0.000987848 0)
(1.01263 -0.00330372 0)
(1.01284 -0.00528829 0)
(1.01312 -0.00741771 0)
(1.01349 -0.00944294 0)
(1.01391 -0.0114839 0)
(1.01438 -0.0135185 0)
(1.01489 -0.0155556 0)
(1.01544 -0.0176013 0)
(1.01599 -0.019658 0)
(1.01656 -0.0217273 0)
(1.01712 -0.0238102 0)
(1.01767 -0.0259065 0)
(1.01819 -0.0280155 0)
(1.01867 -0.030136 0)
(1.0191 -0.0322662 0)
(1.01947 -0.0344038 0)
(1.01976 -0.0365465 0)
(1.01998 -0.0386911 0)
(1.02009 -0.0408344 0)
(1.02011 -0.0429725 0)
(1.02 -0.0451011 0)
(1.01977 -0.0472151 0)
(1.01941 -0.049309 0)
(1.0189 -0.0513763 0)
(1.01825 -0.0534099 0)
(1.01744 -0.0554018 0)
(1.01647 -0.0573433 0)
(1.01533 -0.0592251 0)
(1.01403 -0.0610372 0)
(1.01257 -0.0627693 0)
(1.01095 -0.0644109 0)
(1.00917 -0.0659516 0)
(1.00725 -0.0673812 0)
(1.00518 -0.06869 0)
(1.00298 -0.0698694 0)
(1.00066 -0.0709115 0)
(0.998238 -0.0718101 0)
(0.995725 -0.0725601 0)
(0.993136 -0.0731583 0)
(0.990488 -0.0736031 0)
(0.987797 -0.0738946 0)
(0.985079 -0.0740347 0)
(0.98235 -0.0740269 0)
(0.979625 -0.0738759 0)
(0.976919 -0.0735879 0)
(0.974244 -0.0731701 0)
(0.971614 -0.0726306 0)
(0.969037 -0.0719788 0)
(0.966524 -0.0712246 0)
(0.964083 -0.0703791 0)
(0.961721 -0.0694538 0)
(0.959447 -0.06846 0)
(0.957268 -0.0674086 0)
(0.955187 -0.066309 0)
(0.9532 -0.0651696 0)
(0.9513 -0.0639985 0)
(0.94948 -0.0628039 0)
(0.947737 -0.0615942 0)
(0.946071 -0.0603775 0)
(0.944487 -0.0591607 0)
(0.942988 -0.0579499 0)
(0.941574 -0.0567499 0)
(0.940243 -0.0555652 0)
(0.938993 -0.0543995 0)
(0.937819 -0.0532563 0)
(0.936718 -0.0521384 0)
(0.935685 -0.0510487 0)
(0.934718 -0.0499894 0)
(1.01336 -0.00101497 0)
(1.01347 -0.00338541 0)
(1.0137 -0.00542067 0)
(1.014 -0.00760388 0)
(1.01438 -0.00967915 0)
(1.01484 -0.0117727 0)
(1.01534 -0.0138598 0)
(1.0159 -0.0159503 0)
(1.01648 -0.0180506 0)
(1.01708 -0.0201633 0)
(1.0177 -0.0222905 0)
(1.01831 -0.0244333 0)
(1.01891 -0.0265921 0)
(1.01948 -0.0287665 0)
(1.02002 -0.0309557 0)