/*--------------------------------*- C++ -*----------------------------------*\
  =========                 |
  \\      /  F ield         | OpenFOAM: The Open Source CFD Toolbox
   \\    /   O peration     | Website:  https://openfoam.org
    \\  /    A nd           | Version:  10
     \\/     M anipulation  |
\*---------------------------------------------------------------------------*/
FoamFile
{
    format      ascii;
    class       volVectorField;
    location    "390";
    object      U;
}
// * * * * * * * * * * * * * * * * * * * * * * * * * * * * * * * * * * * * * //

dimensions      [0 1 -1 0 0 0 0];

internalField   nonuniform List<vector> 
66268
(
(1 -3.3676e-05 0)
(1 -0.000123317 0)
(1 -0.000196644 0)
(1 -0.000273811 0)
(1 -0.000349544 0)
(1 -0.000424336 0)
(1 -0.000498708 0)
(1 -0.000572686 0)
(1 -0.000646164 0)
(1 -0.000718985 0)
(1 -0.000790921 0)
(1 -0.00086168 0)
(1 -0.000930917 0)
(1 -0.000998256 0)
(1 -0.0010633 0)
(1 -0.00112562 0)
(1 -0.00118484 0)
(1 -0.00124053 0)
(1 -0.00129235 0)
(1 -0.00133996 0)
(1 -0.00138306 0)
(1 -0.00142142 0)
(1 -0.00145485 0)
(1 -0.00148323 0)
(1 -0.00150647 0)
(1 -0.00152457 0)
(1 -0.00153757 0)
(1 -0.00154556 0)
(1 -0.00154869 0)
(1 -0.00154716 0)
(1 -0.00154118 0)
(1 -0.00153102 0)
(1.00001 -0.00151696 0)
(1.00001 -0.00149931 0)
(1.00001 -0.00147838 0)
(1.00001 -0.00145453 0)
(1.00001 -0.0014281 0)
(1.00001 -0.00139941 0)
(1.00001 -0.0013688 0)
(1.00001 -0.00133654 0)
(1.00001 -0.00130288 0)
(1.00001 -0.00126804 0)
(1.00001 -0.00123217 0)
(1.00001 -0.00119544 0)
(1.00001 -0.00115797 0)
(1.00001 -0.0011199 0)
(1 -0.00108136 0)
(0.999999 -0.00104252 0)
(0.999992 -0.00100353 0)
(0.999979 -0.00096463 0)
(0.999964 -0.000926039 0)
(0.999945 -0.000887996 0)
(0.999927 -0.000850699 0)
(0.999911 -0.000814275 0)
(0.9999 -0.000778782 0)
(0.999895 -0.000744226 0)
(0.999896 -0.000710592 0)
(0.999901 -0.000677869 0)
(0.999909 -0.000646065 0)
(0.99992 -0.000615207 0)
(0.999931 -0.000585337 0)
(0.999941 -0.000556497 0)
(0.999951 -0.000528725 0)
(0.999959 -0.000502048 0)
(0.999966 -0.000476479 0)
(0.999972 -0.000452021 0)
(0.999976 -0.000428663 0)
(0.99998 -0.000406418 0)
(0.999983 -0.0003853 0)
(1.00015 -0.000100788 0)
(1.00014 -0.000363123 0)
(1.00015 -0.000576996 0)
(1.00015 -0.000804294 0)
(1.00016 -0.00102602 0)
(1.00016 -0.00124442 0)
(1.00017 -0.00146117 0)
(1.00017 -0.00167616 0)
(1.00018 -0.00188901 0)
(1.00018 -0.00209925 0)
(1.00018 -0.00230618 0)
(1.00019 -0.00250891 0)
(1.00019 -0.00270642 0)
(1.00019 -0.00289758 0)
(1.00019 -0.00308122 0)
(1.00019 -0.00325614 0)
(1.00019 -0.00342116 0)
(1.00018 -0.00357514 0)
(1.00017 -0.00371704 0)
(1.00016 -0.00384591 0)
(1.00015 -0.00396094 0)
(1.00014 -0.00406147 0)
(1.00012 -0.00414701 0)
(1.00011 -0.00421724 0)
(1.00009 -0.004272 0)
(1.00007 -0.0043113 0)
(1.00005 -0.00433534 0)
(1.00003 -0.00434443 0)
(1 -0.00433907 0)
(0.999977 -0.00431987 0)
(0.999951 -0.00428756 0)
(0.999925 -0.0042429 0)
(0.999899 -0.00418674 0)
(0.999872 -0.00411992 0)
(0.999845 -0.00404333 0)
(0.999819 -0.00395785 0)
(0.999792 -0.00386433 0)
(0.999766 -0.00376363 0)
(0.99974 -0.00365657 0)
(0.999715 -0.00354402 0)
(0.99969 -0.00342684 0)
(0.999666 -0.00330593 0)
(0.999641 -0.0031822 0)
(0.999618 -0.00305655 0)
(0.999595 -0.00292983 0)
(0.999573 -0.00280283 0)
(0.999552 -0.00267626 0)
(0.999535 -0.00255077 0)
(0.999523 -0.00242691 0)
(0.999515 -0.0023051 0)
(0.999513 -0.00218567 0)
(0.999516 -0.0020688 0)
(0.999519 -0.00195458 0)
(0.999521 -0.00184307 0)
(0.999518 -0.0017343 0)
(0.999509 -0.00162833 0)
(0.999495 -0.00152523 0)
(0.999476 -0.00142505 0)
(0.999453 -0.00132784 0)
(0.99943 -0.00123362 0)
(0.999407 -0.00114237 0)
(0.999386 -0.00105412 0)
(0.999366 -0.000968854 0)
(0.999349 -0.000886571 0)
(0.999334 -0.00080726 0)
(0.999322 -0.000730876 0)
(0.999311 -0.00065741 0)
(0.999301 -0.00058687 0)
(0.999293 -0.000519314 0)
(1.00044 -0.000166182 0)
(1.00044 -0.000590304 0)
(1.00045 -0.000935678 0)
(1.00046 -0.0013063 0)
(1.00047 -0.00166564 0)
(1.00048 -0.00201915 0)
(1.00049 -0.0023698 0)
(1.00051 -0.00271706 0)
(1.00052 -0.00306036 0)
(1.00053 -0.00339895 0)
(1.00054 -0.00373168 0)
(1.00055 -0.0040571 0)
(1.00055 -0.00437356 0)
(1.00055 -0.00467926 0)
(1.00055 -0.00497229 0)
(1.00054 -0.00525071 0)
(1.00053 -0.00551263 0)
(1.00051 -0.00575619 0)
(1.00048 -0.0059797 0)
(1.00045 -0.00618165 0)
(1.00042 -0.00636072 0)
(1.00037 -0.00651583 0)
(1.00033 -0.00664621 0)
(1.00027 -0.00675131 0)
(1.00022 -0.00683089 0)
(1.00015 -0.00688499 0)
(1.00009 -0.0069139 0)
(1.00002 -0.00691818 0)
(0.999945 -0.0068986 0)
(0.999869 -0.00685618 0)
(0.999792 -0.0067921 0)
(0.999714 -0.00670767 0)
(0.999635 -0.00660429 0)
(0.999556 -0.00648345 0)
(0.999477 -0.00634671 0)
(0.999399 -0.00619569 0)
(0.999321 -0.00603207 0)
(0.999245 -0.00585754 0)
(0.999171 -0.00567376 0)
(0.999098 -0.00548233 0)
(0.999028 -0.00528473 0)
(0.998959 -0.00508229 0)
(0.998894 -0.00487615 0)
(0.998831 -0.00466732 0)
(0.99877 -0.00445666 0)
(0.998712 -0.00424493 0)
(0.998657 -0.00403282 0)
(0.998603 -0.00382096 0)
(0.99855 -0.0036099 0)
(0.998496 -0.00340019 0)
(0.998443 -0.00319239 0)
(0.998389 -0.00298708 0)
(0.998338 -0.00278489 0)
(0.998291 -0.00258644 0)
(0.99825 -0.00239231 0)
(0.998216 -0.00220298 0)
(0.99819 -0.00201884 0)
(0.99817 -0.00184015 0)
(0.998155 -0.00166713 0)
(0.998143 -0.0014999 0)
(0.998133 -0.00133856 0)
(0.998123 -0.00118315 0)
(0.998114 -0.00103367 0)
(0.998105 -0.000890062 0)
(0.998095 -0.000752285 0)
(0.998086 -0.000620274 0)
(0.998076 -0.000493942 0)
(0.998067 -0.000373215 0)
(0.998057 -0.000258006 0)
(1.00084 -0.000228532 0)
(1.00084 -0.000804296 0)
(1.00086 -0.00127484 0)
(1.00088 -0.0017822 0)
(1.0009 -0.00227155 0)
(1.00092 -0.00275326 0)
(1.00094 -0.00323109 0)
(1.00097 -0.00370401 0)
(1.00099 -0.00417144 0)
(1.00101 -0.00463242 0)
(1.00103 -0.0050854 0)
(1.00104 -0.00552845 0)
(1.00104 -0.00595937 0)
(1.00104 -0.00637571 0)
(1.00103 -0.00677491 0)
(1.00101 -0.00715434 0)
(1.00099 -0.00751139 0)
(1.00095 -0.00784353 0)
(1.0009 -0.00814843 0)
(1.00084 -0.00842394 0)
(1.00076 -0.00866823 0)
(1.00068 -0.00887977 0)
(1.00059 -0.00905738 0)
(1.00049 -0.00920027 0)
(1.00038 -0.00930801 0)
(1.00025 -0.00938056 0)
(1.00013 -0.00941827 0)
(0.999993 -0.0094218 0)
(0.999853 -0.00939217 0)
(0.999709 -0.00933067 0)
(0.999562 -0.00923886 0)
(0.999412 -0.0091185 0)
(0.999262 -0.00897152 0)
(0.999112 -0.00879994 0)
(0.998962 -0.00860588 0)
(0.998814 -0.00839148 0)
(0.998668 -0.00815887 0)
(0.998526 -0.00791011 0)
(0.998387 -0.00764722 0)
(0.998252 -0.00737209 0)
(0.998122 -0.0070866 0)
(0.997997 -0.0067926 0)
(0.997877 -0.00649191 0)
(0.997762 -0.00618637 0)
(0.997652 -0.00587777 0)
(0.997548 -0.00556783 0)
(0.99745 -0.00525817 0)
(0.997358 -0.00495028 0)
(0.997273 -0.00464549 0)
(0.997196 -0.00434496 0)
(0.997127 -0.00404966 0)
(0.997066 -0.0037603 0)
(0.997011 -0.00347738 0)
(0.996958 -0.00320123 0)
(0.996905 -0.00293205 0)
(0.996851 -0.00267004 0)
(0.996795 -0.00241534 0)
(0.996737 -0.00216811 0)
(0.99668 -0.00192849 0)
(0.996624 -0.00169658 0)
(0.996571 -0.00147246 0)
(0.996522 -0.00125618 0)
(0.996476 -0.00104774 0)
(0.996435 -0.000847154 0)
(0.996397 -0.000654285 0)
(0.996363 -0.000469097 0)
(0.996332 -0.000291548 0)
(0.996304 -0.000121533 0)
(0.996279 4.10029e-05 0)
(1.00131 -0.000287348 0)
(1.00132 -0.0010065 0)
(1.00135 -0.00159845 0)
(1.00137 -0.00223663 0)
(1.0014 -0.00284979 0)
(1.00144 -0.00345468 0)
(1.00147 -0.00405487 0)
(1.00151 -0.00464897 0)
(1.00155 -0.00523664 0)
(1.00158 -0.00581678 0)
(1.0016 -0.00638748 0)
(1.00162 -0.00694645 0)
(1.00163 -0.00749102 0)
(1.00163 -0.00801819 0)
(1.00161 -0.00852479 0)
(1.00158 -0.00900754 0)
(1.00154 -0.00946316 0)
(1.00148 -0.00988845 0)
(1.0014 -0.0102804 0)
(1.00131 -0.0106362 0)
(1.00119 -0.0109535 0)
(1.00107 -0.0112301 0)
(1.00092 -0.0114645 0)
(1.00076 -0.0116553 0)
(1.00058 -0.011802 0)
(1.00039 -0.0119043 0)
(1.00019 -0.0119624 0)
(0.999978 -0.011977 0)
(0.999757 -0.0119491 0)
(0.999528 -0.0118803 0)
(0.999295 -0.0117723 0)
(0.999057 -0.0116272 0)
(0.998817 -0.0114475 0)
(0.998577 -0.0112355 0)
(0.998338 -0.010994 0)
(0.9981 -0.0107257 0)
(0.997866 -0.0104333 0)
(0.997637 -0.0101197 0)
(0.997412 -0.00978785 0)
(0.997194 -0.0094405 0)
(0.996982 -0.00908046 0)
(0.996776 -0.00871035 0)
(0.996578 -0.0083326 0)
(0.996388 -0.00794937 0)
(0.996206 -0.00756254 0)
(0.996031 -0.00717378 0)
(0.995865 -0.00678455 0)
(0.995706 -0.00639614 0)
(0.995555 -0.00600969 0)
(0.995409 -0.00562625 0)
(0.99527 -0.0052468 0)
(0.995135 -0.00487232 0)
(0.995008 -0.00450381 0)
(0.994888 -0.00414225 0)
(0.994777 -0.00378857 0)
(0.994677 -0.00344356 0)
(0.994587 -0.00310785 0)
(0.994508 -0.0027819 0)
(0.994436 -0.00246603 0)
(0.994372 -0.00216048 0)
(0.994313 -0.00186535 0)
(0.994258 -0.00158073 0)
(0.994207 -0.0013066 0)
(0.994159 -0.00104297 0)
(0.994113 -0.000789762 0)
(0.99407 -0.000546808 0)
(0.99403 -0.000313982 0)
(0.993992 -9.11928e-05 0)
(0.993957 0.000121678 0)
(1.00184 -0.000343538 0)
(1.00186 -0.00119982 0)
(1.00189 -0.0019101 0)
(1.00192 -0.00267423 0)
(1.00197 -0.00340666 0)
(1.00202 -0.00413119 0)
(1.00207 -0.0048504 0)
(1.00212 -0.0055629 0)
(1.00217 -0.00626873 0)
(1.00222 -0.00696666 0)
(1.00225 -0.0076546 0)
(1.00228 -0.00833001 0)
(1.0023 -0.0089898 0)
(1.0023 -0.00963055 0)
(1.00228 -0.0102486 0)
(1.00224 -0.0108399 0)
(1.00218 -0.0114008 0)
(1.0021 -0.0119272 0)
(1.00199 -0.0124156 0)
(1.00186 -0.0128624 0)
(1.00171 -0.0132645 0)
(1.00153 -0.0136194 0)
(1.00132 -0.0139246 0)
(1.0011 -0.0141786 0)
(1.00085 -0.0143802 0)
(1.00058 -0.0145287 0)
(1.00029 -0.0146242 0)
(0.99999 -0.0146671 0)
(0.999674 -0.0146585 0)
(0.999347 -0.0145999 0)
(0.999011 -0.0144931 0)
(0.998668 -0.0143406 0)
(0.998322 -0.0141449 0)
(0.997973 -0.0139091 0)
(0.997625 -0.013636 0)
(0.99728 -0.0133291 0)
(0.996938 -0.0129916 0)
(0.996602 -0.0126267 0)
(0.996274 -0.0122378 0)
(0.995953 -0.0118279 0)
(0.995643 -0.0114001 0)
(0.995342 -0.0109573 0)
(0.995053 -0.0105022 0)
(0.994775 -0.0100376 0)
(0.99451 -0.00956617 0)
(0.994256 -0.00909062 0)
(0.994015 -0.00861338 0)
(0.993787 -0.00813678 0)
(0.993572 -0.0076629 0)
(0.993371 -0.00719361 0)
(0.993184 -0.00673049 0)
(0.99301 -0.00627487 0)
(0.992849 -0.00582776 0)
(0.992699 -0.00538995 0)
(0.992556 -0.00496206 0)
(0.99242 -0.00454457 0)
(0.992288 -0.00413795 0)
(0.992161 -0.00374261 0)
(0.99204 -0.00335891 0)
(0.991924 -0.00298714 0)
(0.991816 -0.00262753 0)
(0.991714 -0.00228024 0)
(0.991621 -0.00194533 0)
(0.991534 -0.00162283 0)
(0.991454 -0.00131272 0)
(0.991381 -0.00101489 0)
(0.991314 -0.000729225 0)
(0.991252 -0.000455612 0)
(0.991195 -0.000193939 0)
(1.00242 -0.000398056 0)
(1.00244 -0.00138579 0)
(1.00248 -0.00221018 0)
(1.00253 -0.00309559 0)
(1.00259 -0.00394323 0)
(1.00265 -0.00478403 0)
(1.00272 -0.00561914 0)
(1.0028 -0.00644758 0)
(1.00286 -0.00726983 0)
(1.00293 -0.0080846 0)
(1.00298 -0.00888975 0)
(1.00302 -0.00968258 0)
(1.00305 -0.0104598 0)
(1.00305 -0.0112175 0)
(1.00303 -0.0119517 0)
(1.00299 -0.0126579 0)
(1.00292 -0.0133316 0)
(1.00282 -0.0139684 0)
(1.00268 -0.0145639 0)
(1.00252 -0.0151139 0)
(1.00232 -0.0156146 0)
(1.00208 -0.0160627 0)
(1.00182 -0.0164552 0)
(1.00152 -0.0167898 0)
(1.00119 -0.0170646 0)
(1.00084 -0.0172787 0)
(1.00046 -0.0174314 0)
(1.00006 -0.017523 0)
(0.999637 -0.0175541 0)
(0.999199 -0.0175262 0)
(0.998747 -0.017441 0)
(0.998286 -0.017301 0)
(0.997818 -0.0171088 0)
(0.997346 -0.0168675 0)
(0.996873 -0.0165805 0)
(0.996403 -0.0162514 0)
(0.995937 -0.0158839 0)
(0.995478 -0.0154818 0)
(0.995028 -0.0150489 0)
(0.994589 -0.0145893 0)
(0.994161 -0.0141067 0)
(0.993747 -0.0136051 0)
(0.993348 -0.0130881 0)
(0.992963 -0.0125591 0)
(0.992594 -0.0120211 0)
(0.992241 -0.0114769 0)
(0.991904 -0.010929 0)
(0.991584 -0.0103796 0)
(0.991279 -0.00983066 0)
(0.99099 -0.00928406 0)
(0.990715 -0.00874154 0)
(0.990453 -0.00820474 0)
(0.990205 -0.00767526 0)
(0.989971 -0.00715459 0)
(0.989752 -0.00664409 0)
(0.989549 -0.00614495 0)
(0.989362 -0.00565813 0)
(0.989192 -0.00518436 0)
(0.989035 -0.00472421 0)
(0.988891 -0.00427809 0)
(0.988758 -0.00384632 0)
(0.988635 -0.0034291 0)
(0.98852 -0.00302657 0)
(0.988413 -0.00263876 0)
(0.988313 -0.0022657 0)
(0.988219 -0.00190728 0)
(0.988132 -0.00156341 0)
(0.988051 -0.00123396 0)
(0.987975 -0.000918787 0)
(1.00306 -0.000450726 0)
(1.00308 -0.00156275 0)
(1.00313 -0.0024949 0)
(1.00319 -0.00349556 0)
(1.00326 -0.00445301 0)
(1.00335 -0.00540523 0)
(1.00344 -0.00635178 0)
(1.00354 -0.00729238 0)
(1.00363 -0.00822796 0)
(1.00371 -0.00915728 0)
(1.00379 -0.0100783 0)
(1.00385 -0.0109883 0)
(1.00388 -0.0118838 0)
(1.0039 -0.0127607 0)
(1.00388 -0.0136147 0)
(1.00384 -0.0144408 0)
(1.00376 -0.0152342 0)
(1.00364 -0.0159897 0)
(1.00348 -0.0167023 0)
(1.00328 -0.0173673 0)
(1.00304 -0.0179799 0)
(1.00276 -0.0185361 0)
(1.00243 -0.0190322 0)
(1.00206 -0.019465 0)
(1.00165 -0.019832 0)
(1.00121 -0.0201315 0)
(1.00073 -0.0203621 0)
(1.00023 -0.0205236 0)
(0.99969 -0.0206161 0)
(0.999132 -0.0206406 0)
(0.998554 -0.0205986 0)
(0.997963 -0.0204923 0)
(0.99736 -0.0203244 0)
(0.996751 -0.0200981 0)
(0.996139 -0.0198168 0)
(0.995528 -0.0194844 0)
(0.994922 -0.0191051 0)
(0.994323 -0.0186829 0)
(0.993734 -0.0182224 0)
(0.993158 -0.0177276 0)
(0.992597 -0.0172029 0)
(0.992053 -0.0166521 0)
(0.991527 -0.0160793 0)
(0.991021 -0.0154881 0)
(0.990535 -0.0148824 0)
(0.99007 -0.0142659 0)
(0.989626 -0.0136421 0)
(0.989204 -0.0130144 0)
(0.988804 -0.012386 0)
(0.988427 -0.0117597 0)
(0.988071 -0.0111381 0)
(0.987739 -0.0105233 0)
(0.987427 -0.00991703 0)
(0.987136 -0.00932084 0)
(0.986862 -0.00873591 0)
(0.986603 -0.00816328 0)
(0.986358 -0.00760387 0)
(0.986125 -0.00705852 0)
(0.985904 -0.00652794 0)
(0.985696 -0.00601274 0)
(0.9855 -0.00551338 0)
(0.985318 -0.0050302 0)
(0.985148 -0.00456344 0)
(0.984991 -0.00411324 0)
(0.984846 -0.00367964 0)
(0.984711 -0.00326262 0)
(0.984587 -0.0028621 0)
(0.984472 -0.00247798 0)
(0.984366 -0.00211017 0)
(1.00373 -0.000500373 0)
(1.00375 -0.00172689 0)
(1.00382 -0.00275808 0)
(1.00389 -0.0038656 0)
(1.00399 -0.00492513 0)
(1.00409 -0.00598158 0)
(1.00421 -0.00703281 0)
(1.00433 -0.00807956 0)
(1.00445 -0.00912313 0)
(1.00456 -0.0101625 0)
(1.00466 -0.0111959 0)
(1.00474 -0.0122205 0)
(1.0048 -0.013233 0)
(1.00483 -0.0142293 0)
(1.00483 -0.0152046 0)
(1.00479 -0.0161538 0)
(1.0047 -0.0170716 0)
(1.00457 -0.0179523 0)
(1.0044 -0.0187904 0)
(1.00417 -0.0195804 0)
(1.00389 -0.0203169 0)
(1.00356 -0.0209949 0)
(1.00317 -0.0216099 0)
(1.00273 -0.0221579 0)
(1.00225 -0.0226355 0)
(1.00171 -0.0230399 0)
(1.00114 -0.0233691 0)
(1.00052 -0.023622 0)
(0.999866 -0.023798 0)
(0.999181 -0.0238975 0)
(0.998471 -0.0239215 0)
(0.997739 -0.0238717 0)
(0.996992 -0.0237506 0)
(0.996234 -0.0235611 0)
(0.99547 -0.0233068 0)
(0.994705 -0.0229914 0)
(0.993943 -0.0226191 0)
(0.993188 -0.0221945 0)
(0.992445 -0.0217222 0)
(0.991716 -0.0212071 0)
(0.991004 -0.0206539 0)
(0.990311 -0.0200678 0)
(0.98964 -0.0194536 0)
(0.988992 -0.0188161 0)
(0.988368 -0.0181599 0)
(0.98777 -0.0174892 0)
(0.987197 -0.0168076 0)
(0.986651 -0.0161186 0)
(0.98613 -0.0154251 0)
(0.985636 -0.0147301 0)
(0.985166 -0.0140362 0)
(0.98472 -0.0133459 0)
(0.984298 -0.0126615 0)
(0.983898 -0.0119854 0)
(0.983523 -0.0113195 0)
(0.983172 -0.0106659 0)
(0.982846 -0.0100258 0)
(0.982544 -0.00940067 0)
(0.982265 -0.00879143 0)
(0.982007 -0.0081989 0)
(0.981767 -0.00762372 0)
(0.981544 -0.00706643 0)
(0.981337 -0.0065274 0)
(0.981143 -0.00600694 0)
(0.980963 -0.00550519 0)
(0.980795 -0.00502224 0)
(0.980638 -0.00455807 0)
(0.980493 -0.00411265 0)
(0.980357 -0.00368588 0)
(1.00443 -0.000545606 0)
(1.00447 -0.00187439 0)
(1.00454 -0.00299433 0)
(1.00463 -0.00419827 0)
(1.00475 -0.00535015 0)
(1.00488 -0.00650158 0)
(1.00502 -0.00764882 0)
(1.00517 -0.00879371 0)
(1.00532 -0.00993799 0)
(1.00546 -0.011081 0)
(1.00559 -0.0122211 0)
(1.0057 -0.0133561 0)
(1.00578 -0.0144824 0)
(1.00583 -0.0155961 0)
(1.00585 -0.0166923 0)
(1.00582 -0.0177658 0)
(1.00574 -0.0188108 0)
(1.00561 -0.0198215 0)
(1.00542 -0.0207916 0)
(1.00517 -0.021715 0)
(1.00486 -0.0225857 0)
(1.00448 -0.0233978 0)
(1.00404 -0.0241459 0)
(1.00354 -0.024825 0)
(1.00298 -0.0254307 0)
(1.00236 -0.0259592 0)
(1.00169 -0.0264076 0)
(1.00096 -0.0267735 0)
(1.00019 -0.0270557 0)
(0.999373 -0.0272534 0)
(0.998525 -0.0273671 0)
(0.997648 -0.0273977 0)
(0.996748 -0.0273471 0)
(0.995831 -0.0272179 0)
(0.994904 -0.0270133 0)
(0.993973 -0.026737 0)
(0.993042 -0.0263933 0)
(0.992116 -0.0259869 0)
(0.991202 -0.0255229 0)
(0.990302 -0.0250064 0)
(0.98942 -0.0244428 0)
(0.98856 -0.0238371 0)
(0.987725 -0.0231946 0)
(0.986918 -0.0225202 0)
(0.986139 -0.0218187 0)
(0.985391 -0.0210949 0)
(0.984674 -0.0203536 0)
(0.98399 -0.0195994 0)
(0.983338 -0.0188368 0)
(0.98272 -0.0180698 0)
(0.982136 -0.0173024 0)
(0.981584 -0.0165377 0)
(0.981067 -0.0157788 0)
(0.98058 -0.015028 0)
(0.980123 -0.0142873 0)
(0.979692 -0.0135587 0)
(0.979285 -0.0128437 0)
(0.9789 -0.0121439 0)
(0.978536 -0.0114606 0)
(0.978194 -0.0107949 0)
(0.977873 -0.0101476 0)
(0.977573 -0.00951963 0)
(0.977294 -0.00891141 0)
(0.977034 -0.00832337 0)
(0.976792 -0.00775575 0)
(0.976568 -0.00720872 0)
(0.976361 -0.00668232 0)
(0.976169 -0.00617658 0)
(0.975991 -0.00569151 0)
(1.00516 -0.000585504 0)
(1.0052 -0.00200326 0)
(1.00529 -0.00320126 0)
(1.00539 -0.00449026 0)
(1.00553 -0.00572379 0)
(1.00569 -0.00696006 0)
(1.00586 -0.00819373 0)
(1.00604 -0.00942784 0)
(1.00623 -0.0106646 0)
(1.0064 -0.0119037 0)
(1.00656 -0.0131442 0)
(1.0067 -0.0143839 0)
(1.00682 -0.0156197 0)
(1.0069 -0.0168477 0)
(1.00693 -0.0180631 0)
(1.00692 -0.0192607 0)
(1.00685 -0.0204345 0)
(1.00673 -0.0215783 0)
(1.00653 -0.0226854 0)
(1.00627 -0.0237493 0)
(1.00594 -0.0247631 0)
(1.00553 -0.0257202 0)
(1.00505 -0.0266144 0)
(1.00449 -0.0274395 0)
(1.00386 -0.02819 0)
(1.00316 -0.0288612 0)
(1.00239 -0.0294488 0)
(1.00156 -0.0299494 0)
(1.00067 -0.0303604 0)
(0.99973 -0.0306803 0)
(0.998744 -0.0309081 0)
(0.997718 -0.0310442 0)
(0.996661 -0.0310895 0)
(0.99558 -0.0310459 0)
(0.994481 -0.0309162 0)
(0.993373 -0.0307037 0)
(0.99226 -0.0304127 0)
(0.991151 -0.0300475 0)
(0.99005 -0.0296132 0)
(0.988964 -0.0291151 0)
(0.987897 -0.0285588 0)
(0.986853 -0.0279501 0)
(0.985837 -0.0272948 0)
(0.984851 -0.026599 0)
(0.983898 -0.0258688 0)
(0.982979 -0.0251098 0)
(0.982097 -0.0243274 0)
(0.981252 -0.0235265 0)
(0.980445 -0.0227117 0)
(0.979676 -0.0218871 0)
(0.978945 -0.0210566 0)
(0.978249 -0.0202239 0)
(0.977589 -0.0193923 0)
(0.976963 -0.0185654 0)
(0.976373 -0.0177461 0)
(0.975818 -0.0169374 0)
(0.9753 -0.0161415 0)
(0.974817 -0.0153604 0)
(0.974368 -0.014596 0)
(0.97395 -0.0138494 0)
(0.973561 -0.0131221 0)
(0.973199 -0.0124149 0)
(0.972861 -0.0117287 0)
(0.972546 -0.0110642 0)
(0.972252 -0.0104219 0)
(0.971978 -0.00980218 0)
(0.971723 -0.00920518 0)
(0.971485 -0.00863111 0)
(0.971264 -0.00808003 0)
(1.00589 -0.000619941 0)
(1.00594 -0.00211371 0)
(1.00604 -0.00337953 0)
(1.00617 -0.0047424 0)
(1.00633 -0.00604711 0)
(1.00651 -0.00735823 0)
(1.00672 -0.00866888 0)
(1.00693 -0.00998333 0)
(1.00715 -0.0113042 0)
(1.00736 -0.012632 0)
(1.00756 -0.013966 0)
(1.00774 -0.0153047 0)
(1.00789 -0.0166451 0)
(1.008 -0.0179838 0)
(1.00807 -0.0193161 0)
(1.00808 -0.0206367 0)
(1.00804 -0.0219398 0)
(1.00792 -0.0232188 0)
(1.00774 -0.0244669 0)
(1.00748 -0.025677 0)
(1.00713 -0.0268416 0)
(1.0067 -0.0279534 0)
(1.00619 -0.0290052 0)
(1.00558 -0.02999 0)
(1.0049 -0.0309012 0)
(1.00412 -0.0317327 0)
(1.00327 -0.032479 0)
(1.00234 -0.0331355 0)
(1.00134 -0.0336982 0)
(1.00028 -0.0341642 0)
(0.999155 -0.0345314 0)
(0.997981 -0.0347989 0)
(0.996765 -0.0349666 0)
(0.995515 -0.0350354 0)
(0.994239 -0.0350072 0)
(0.992946 -0.0348848 0)
(0.991643 -0.0346716 0)
(0.990338 -0.0343719 0)
(0.989038 -0.0339907 0)
(0.98775 -0.0335333 0)
(0.986481 -0.0330056 0)
(0.985236 -0.0324138 0)
(0.984019 -0.0317641 0)
(0.982834 -0.0310627 0)
(0.981686 -0.0303158 0)
(0.980578 -0.0295294 0)
(0.979511 -0.0287096 0)
(0.978488 -0.0278624 0)
(0.977509 -0.0269937 0)
(0.976575 -0.0261091 0)
(0.975689 -0.0252141 0)
(0.974848 -0.0243135 0)
(0.974055 -0.0234116 0)
(0.973307 -0.0225123 0)
(0.972602 -0.0216188 0)
(0.971938 -0.020734 0)
(0.97131 -0.0198606 0)
(0.970717 -0.0190012 0)
(0.970157 -0.0181579 0)
(0.969629 -0.0173327 0)
(0.969134 -0.0165273 0)
(0.96867 -0.0157429 0)
(0.968237 -0.0149807 0)
(0.967833 -0.0142415 0)
(0.967457 -0.013526 0)
(0.967108 -0.0128346 0)
(0.966783 -0.0121677 0)
(0.966482 -0.0115255 0)
(0.966202 -0.0109083 0)
(1.00662 -0.000649442 0)
(1.00668 -0.00220753 0)
(1.00679 -0.00353167 0)
(1.00694 -0.00495818 0)
(1.00712 -0.00632454 0)
(1.00734 -0.00770133 0)
(1.00757 -0.00908025 0)
(1.00782 -0.0104668 0)
(1.00808 -0.0118641 0)
(1.00833 -0.0132733 0)
(1.00858 -0.0146944 0)
(1.0088 -0.0161263 0)
(1.00899 -0.0175665 0)
(1.00914 -0.0190119 0)
(1.00925 -0.0204582 0)
(1.0093 -0.0219003 0)
(1.00928 -0.0233324 0)
(1.0092 -0.0247478 0)
(1.00903 -0.0261397 0)
(1.00878 -0.0275003 0)
(1.00843 -0.028822 0)
(1.00799 -0.0300967 0)
(1.00746 -0.0313164 0)
(1.00682 -0.0324732 0)
(1.00609 -0.0335593 0)
(1.00526 -0.0345675 0)
(1.00433 -0.0354909 0)
(1.00332 -0.0363236 0)
(1.00221 -0.03706 0)
(1.00103 -0.0376958 0)
(0.999779 -0.0382275 0)
(0.998461 -0.0386526 0)
(0.997088 -0.0389696 0)
(0.995668 -0.0391782 0)
(0.994212 -0.0392793 0)
(0.992728 -0.0392745 0)
(0.991226 -0.0391668 0)
(0.989716 -0.0389597 0)
(0.988205 -0.0386578 0)
(0.986702 -0.0382664 0)
(0.985215 -0.0377911 0)
(0.98375 -0.0372381 0)
(0.982314 -0.0366142 0)
(0.980912 -0.0359261 0)
(0.979549 -0.035181 0)
(0.978229 -0.0343861 0)
(0.976955 -0.0335485 0)
(0.97573 -0.0326748 0)
(0.974554 -0.0317715 0)
(0.973429 -0.0308443 0)
(0.972355 -0.0298987 0)
(0.971331 -0.02894 0)
(0.970357 -0.027973 0)
(0.969432 -0.0270026 0)
(0.968555 -0.0260335 0)
(0.967728 -0.0250697 0)
(0.966951 -0.0241149 0)
(0.966224 -0.0231724 0)
(0.965545 -0.0222447 0)
(0.964911 -0.0213342 0)
(0.96432 -0.020443 0)
(0.963768 -0.0195728 0)
(0.963252 -0.0187251 0)
(0.96277 -0.0179013 0)
(0.962319 -0.0171025 0)
(0.961899 -0.0163294 0)
(0.961507 -0.0155826 0)
(0.961141 -0.0148627 0)
(0.9608 -0.0141701 0)
(1.00734 -0.00067476 0)
(1.0074 -0.00228704 0)
(1.00753 -0.00366101 0)
(1.0077 -0.00514215 0)
(1.00791 -0.00656181 0)
(1.00815 -0.00799613 0)
(1.00843 -0.00943552 0)
(1.00872 -0.0108866 0)
(1.00901 -0.0123533 0)
(1.00931 -0.0138373 0)
(1.0096 -0.0153394 0)
(1.00987 -0.0168588 0)
(1.01011 -0.018394 0)
(1.01031 -0.019942 0)
(1.01047 -0.0214991 0)
(1.01056 -0.0230603 0)
(1.01058 -0.0246202 0)
(1.01053 -0.0261721 0)
(1.01039 -0.027709 0)
(1.01016 -0.0292233 0)
(1.00983 -0.0307066 0)
(1.0094 -0.0321505 0)
(1.00886 -0.0335463 0)
(1.0082 -0.0348852 0)
(1.00744 -0.0361585 0)
(1.00656 -0.0373577 0)
(1.00558 -0.0384748 0)
(1.00449 -0.0395021 0)
(1.00329 -0.0404328 0)
(1.00201 -0.0412609 0)
(1.00063 -0.0419811 0)
(0.999175 -0.0425893 0)
(0.99765 -0.0430826 0)
(0.996063 -0.043459 0)
(0.994427 -0.0437179 0)
(0.992751 -0.0438598 0)
(0.991045 -0.0438864 0)
(0.989322 -0.0438004 0)
(0.98759 -0.0436056 0)
(0.98586 -0.0433065 0)
(0.984141 -0.0429089 0)
(0.982441 -0.0424187 0)
(0.980769 -0.0418429 0)
(0.97913 -0.0411885 0)
(0.977532 -0.0404629 0)
(0.975979 -0.0396734 0)
(0.974476 -0.0388275 0)
(0.973026 -0.0379327 0)
(0.971632 -0.0369965 0)
(0.970297 -0.0360264 0)
(0.969021 -0.0350295 0)
(0.967807 -0.0340129 0)
(0.966655 -0.0329827 0)
(0.965565 -0.0319446 0)
(0.964535 -0.0309034 0)
(0.963562 -0.0298637 0)
(0.962641 -0.0288295 0)
(0.96177 -0.0278048 0)
(0.960946 -0.026793 0)
(0.960169 -0.0257973 0)
(0.959438 -0.0248206 0)
(0.958753 -0.0238652 0)
(0.958111 -0.0229328 0)
(0.957512 -0.0220252 0)
(0.956953 -0.0211436 0)
(0.956432 -0.020289 0)
(0.955947 -0.0194622 0)
(0.955496 -0.018664 0)
(0.955077 -0.0178949 0)
(1.00805 -0.000696551 0)
(1.00812 -0.00235442 0)
(1.00826 -0.00377085 0)
(1.00845 -0.00529888 0)
(1.00869 -0.00676461 0)
(1.00896 -0.00824932 0)
(1.00927 -0.00974226 0)
(1.0096 -0.0112512 0)
(1.00995 -0.0127808 0)
(1.01029 -0.0143334 0)
(1.01063 -0.0159105 0)
(1.01095 -0.0175121 0)
(1.01125 -0.019137 0)
(1.0115 -0.0207831 0)
(1.01171 -0.022447 0)
(1.01185 -0.0241243 0)
(1.01193 -0.0258095 0)
(1.01192 -0.0274966 0)
(1.01183 -0.0291784 0)
(1.01163 -0.0308473 0)
(1.01133 -0.0324947 0)
(1.01091 -0.0341118 0)
(1.01038 -0.0356895 0)
(1.00972 -0.0372181 0)
(1.00894 -0.0386881 0)
(1.00804 -0.0400901 0)
(1.00701 -0.0414145 0)
(1.00585 -0.0426526 0)
(1.00459 -0.0437958 0)
(1.00321 -0.0448365 0)
(1.00172 -0.0457677 0)
(1.00014 -0.0465835 0)
(0.998468 -0.0472791 0)
(0.996721 -0.0478508 0)
(0.994908 -0.0482962 0)
(0.993041 -0.0486142 0)
(0.991131 -0.0488049 0)
(0.98919 -0.0488699 0)
(0.98723 -0.0488119 0)
(0.985263 -0.0486348 0)
(0.9833 -0.0483434 0)
(0.98135 -0.0479438 0)
(0.979423 -0.0474423 0)
(0.977528 -0.0468465 0)
(0.975673 -0.0461639 0)
(0.973865 -0.0454029 0)
(0.972109 -0.0445721 0)
(0.97041 -0.0436798 0)
(0.968772 -0.0427343 0)
(0.967197 -0.0417435 0)
(0.965687 -0.0407148 0)
(0.964243 -0.0396553 0)
(0.962864 -0.0385719 0)
(0.961549 -0.0374712 0)
(0.960299 -0.0363597 0)
(0.959115 -0.0352437 0)
(0.957998 -0.0341286 0)
(0.956949 -0.0330194 0)
(0.955966 -0.03192 0)
(0.955046 -0.0308343 0)
(0.954185 -0.0297655 0)
(0.953379 -0.0287164 0)
(0.952624 -0.0276897 0)
(0.951918 -0.0266876 0)
(0.951257 -0.0257122 0)
(0.950639 -0.0247648 0)
(0.950061 -0.0238468 0)
(0.949523 -0.0229593 0)
(0.949021 -0.0221031 0)
(1.00874 -0.000715319 0)
(1.00882 -0.00241149 0)
(1.00897 -0.00386415 0)
(1.00918 -0.00543242 0)
(1.00945 -0.00693791 0)
(1.00976 -0.00846671 0)
(1.0101 -0.010007 0)
(1.01048 -0.0115677 0)
(1.01087 -0.013154 0)
(1.01126 -0.0147693 0)
(1.01166 -0.0164156 0)
(1.01204 -0.0180937 0)
(1.01239 -0.019803 0)
(1.0127 -0.0215421 0)
(1.01297 -0.0233081 0)
(1.01318 -0.0250971 0)
(1.01331 -0.0269042 0)
(1.01336 -0.0287235 0)
(1.01331 -0.0305481 0)
(1.01316 -0.0323704 0)
(1.0129 -0.034182 0)
(1.01252 -0.0359738 0)
(1.012 -0.0377362 0)
(1.01136 -0.0394592 0)
(1.01058 -0.0411326 0)
(1.00966 -0.0427457 0)
(1.00861 -0.0442884 0)
(1.00742 -0.0457502 0)
(1.00609 -0.0471213 0)
(1.00463 -0.0483925 0)
(1.00305 -0.0495549 0)
(1.00135 -0.0506008 0)
(0.999553 -0.0515233 0)
(0.997656 -0.0523168 0)
(0.995674 -0.052977 0)
(0.993621 -0.0535008 0)
(0.991508 -0.0538865 0)
(0.989349 -0.0541341 0)
(0.987158 -0.0542448 0)
(0.984946 -0.0542211 0)
(0.982728 -0.0540669 0)
(0.980516 -0.0537873 0)
(0.97832 -0.0533885 0)
(0.976152 -0.0528774 0)
(0.974021 -0.0522618 0)
(0.971936 -0.05155 0)
(0.969904 -0.0507506 0)
(0.967932 -0.0498724 0)
(0.966026 -0.0489246 0)
(0.964188 -0.0479165 0)
(0.962424 -0.0468574 0)
(0.960736 -0.0457566 0)
(0.959126 -0.0446228 0)
(0.957596 -0.0434639 0)
(0.956146 -0.0422873 0)
(0.954772 -0.0410992 0)
(0.953469 -0.0399057 0)
(0.952235 -0.0387126 0)
(0.951066 -0.0375252 0)
(0.94996 -0.0363485 0)
(0.948918 -0.0351869 0)
(0.947938 -0.0340442 0)
(0.94702 -0.0329234 0)
(0.94616 -0.0318274 0)
(0.945358 -0.0307583 0)
(0.944608 -0.0297181 0)
(0.94391 -0.0287083 0)
(0.943259 -0.0277304 0)
(0.942652 -0.0267854 0)
(1.00941 -0.000731482 0)
(1.0095 -0.00245975 0)
(1.00966 -0.00394336 0)
(1.00989 -0.00554614 0)
(1.01019 -0.00708586 0)
(1.01053 -0.00865315 0)
(1.01092 -0.0102352 0)
(1.01134 -0.0118419 0)
(1.01177 -0.0134793 0)
(1.01222 -0.0151514 0)
(1.01267 -0.016861 0)
(1.01311 -0.0186097 0)
(1.01353 -0.0203977 0)
(1.01391 -0.022224 0)
(1.01424 -0.0240865 0)
(1.01451 -0.0259819 0)
(1.01471 -0.0279058 0)
(1.01482 -0.0298528 0)
(1.01484 -0.0318163 0)
(1.01475 -0.033789 0)
(1.01454 -0.0357625 0)
(1.0142 -0.0377278 0)
(1.01373 -0.0396751 0)
(1.01311 -0.0415941 0)
(1.01235 -0.043474 0)
(1.01144 -0.0453037 0)
(1.01038 -0.0470719 0)
(1.00916 -0.0487672 0)
(1.00779 -0.0503784 0)
(1.00628 -0.0518948 0)
(1.00462 -0.0533058 0)
(1.00283 -0.0546018 0)
(1.00091 -0.0557739 0)
(0.998876 -0.0568145 0)
(0.996738 -0.0577169 0)
(0.994507 -0.0584759 0)
(0.992198 -0.0590877 0)
(0.989824 -0.0595501 0)
(0.987401 -0.0598624 0)
(0.984943 -0.0600256 0)
(0.982464 -0.060042 0)
(0.979979 -0.0599157 0)
(0.9775 -0.059652 0)
(0.975042 -0.0592574 0)
(0.972616 -0.0587396 0)
(0.970232 -0.058107 0)
(0.967901 -0.0573689 0)
(0.96563 -0.0565351 0)
(0.963426 -0.0556157 0)
(0.961296 -0.0546204 0)
(0.959243 -0.053559 0)
(0.957271 -0.0524405 0)
(0.955379 -0.0512741 0)
(0.95357 -0.0500686 0)
(0.951842 -0.0488331 0)
(0.950199 -0.0475761 0)
(0.948642 -0.046306 0)
(0.947175 -0.0450298 0)
(0.945795 -0.0437539 0)
(0.944501 -0.0424838 0)
(0.943287 -0.0412245 0)
(0.942148 -0.0399806 0)
(0.94108 -0.0387563 0)
(0.940078 -0.0375553 0)
(0.93914 -0.0363807 0)
(0.938261 -0.0352353 0)
(0.937439 -0.0341213 0)
(0.936671 -0.0330406 0)
(0.935955 -0.031995 0)
(1.01005 -0.000745412 0)
(1.01015 -0.00250051 0)
(1.01034 -0.00401056 0)
(1.01059 -0.00564288 0)
(1.01091 -0.00721195 0)
(1.01129 -0.00881269 0)
(1.01171 -0.0104314 0)
(1.01217 -0.0120787 0)
(1.01266 -0.0137616 0)
(1.01317 -0.0154848 0)
(1.01367 -0.0172519 0)
(1.01418 -0.0190652 0)
(1.01466 -0.0209255 0)
(1.01511 -0.0228328 0)
(1.01551 -0.0247855 0)
(1.01585 -0.0267811 0)
(1.01612 -0.0288157 0)
(1.01631 -0.0308844 0)
(1.0164 -0.0329813 0)
(1.01637 -0.0350992 0)
(1.01623 -0.0372302 0)
(1.01595 -0.0393653 0)
(1.01553 -0.041495 0)
(1.01496 -0.0436087 0)
(1.01424 -0.0456955 0)
(1.01335 -0.0477437 0)
(1.01229 -0.0497414 0)
(1.01107 -0.0516764 0)
(1.00969 -0.0535365 0)
(1.00813 -0.0553094 0)
(1.00642 -0.0569833 0)
(1.00455 -0.0585465 0)
(1.00254 -0.0599885 0)
(1.00039 -0.0612991 0)
(0.998105 -0.0624695 0)
(0.995711 -0.0634921 0)
(0.993217 -0.0643607 0)
(0.990636 -0.0650706 0)
(0.987986 -0.065619 0)
(0.985281 -0.0660045 0)
(0.982539 -0.0662278 0)
(0.979775 -0.0662911 0)
(0.977004 -0.0661982 0)
(0.974243 -0.0659546 0)
(0.971504 -0.0655668 0)
(0.968803 -0.0650429 0)
(0.96615 -0.0643915 0)
(0.963556 -0.0636225 0)
(0.96103 -0.0627459 0)
(0.958581 -0.0617726 0)
(0.956215 -0.060714 0)
(0.953938 -0.0595818 0)
(0.951755 -0.0583876 0)
(0.94967 -0.0571424 0)
(0.947685 -0.0558563 0)
(0.945799 -0.0545383 0)
(0.944007 -0.0531968 0)
(0.942305 -0.05184 0)
(0.940689 -0.0504758 0)
(0.939158 -0.0491117 0)
(0.93771 -0.0477542 0)
(0.936348 -0.0464094 0)
(0.935068 -0.0450822 0)
(0.933869 -0.0437769 0)
(0.932747 -0.0424973 0)
(0.931699 -0.0412466 0)