/*--------------------------------*- C++ -*----------------------------------*\
  =========                 |
  \\      /  F ield         | OpenFOAM: The Open Source CFD Toolbox
   \\    /   O peration     | Website:  https://openfoam.org
    \\  /    A nd           | Version:  10
     \\/     M anipulation  |
\*---------------------------------------------------------------------------*/
FoamFile
{
    format      ascii;
    class       volVectorField;
    location    "400";
    object      U;
}
// * * * * * * * * * * * * * * * * * * * * * * * * * * * * * * * * * * * * * //

dimensions      [0 1 -1 0 0 0 0];

internalField   nonuniform List<vector> 
66268
(
(0.999999 -5.24822e-05 0)
(0.999999 -0.000192277 0)
(0.999999 -0.000306225 0)
(0.999999 -0.000425097 0)
(0.999999 -0.000540481 0)
(0.999999 -0.000652962 0)
(0.999999 -0.000763247 0)
(0.999999 -0.000871338 0)
(0.999998 -0.000977061 0)
(0.999998 -0.00108022 0)
(0.999998 -0.00118054 0)
(0.999998 -0.0012777 0)
(0.999998 -0.00137134 0)
(0.999998 -0.00146106 0)
(0.999998 -0.00154647 0)
(0.999998 -0.00162718 0)
(0.999998 -0.0017028 0)
(0.999998 -0.00177299 0)
(0.999998 -0.00183745 0)
(0.999998 -0.00189593 0)
(0.999998 -0.00194822 0)
(0.999998 -0.00199418 0)
(0.999998 -0.00203373 0)
(0.999998 -0.00206685 0)
(0.999998 -0.0020936 0)
(0.999998 -0.00211406 0)
(0.999998 -0.00212841 0)
(0.999998 -0.00213683 0)
(0.999998 -0.0021396 0)
(0.999998 -0.00213698 0)
(0.999998 -0.0021293 0)
(0.999998 -0.0021169 0)
(0.999998 -0.00210015 0)
(0.999998 -0.00207944 0)
(0.999998 -0.00205514 0)
(0.999998 -0.00202766 0)
(0.999998 -0.0019974 0)
(0.999998 -0.00196473 0)
(0.999997 -0.00193 0)
(0.999997 -0.00189354 0)
(0.999997 -0.00185562 0)
(0.999997 -0.00181649 0)
(0.999996 -0.00177633 0)
(0.999996 -0.00173533 0)
(0.999995 -0.00169364 0)
(0.999993 -0.00165142 0)
(0.999991 -0.00160882 0)
(0.999988 -0.00156601 0)
(0.999982 -0.00152317 0)
(0.999975 -0.00148049 0)
(0.999964 -0.0014382 0)
(0.999953 -0.00139652 0)
(0.999941 -0.00135564 0)
(0.999931 -0.00131569 0)
(0.999924 -0.00127676 0)
(0.99992 -0.00123891 0)
(0.99992 -0.00120215 0)
(0.999924 -0.00116652 0)
(0.999929 -0.00113204 0)
(0.999936 -0.00109874 0)
(0.999943 -0.00106664 0)
(0.99995 -0.00103578 0)
(0.999957 -0.00100616 0)
(0.999963 -0.000977792 0)
(0.999968 -0.000950656 0)
(0.999972 -0.000924734 0)
(0.999976 -0.0009 0)
(0.999978 -0.000876458 0)
(0.999981 -0.000854113 0)
(1.00023 -0.000161877 0)
(1.00023 -0.000584352 0)
(1.00023 -0.000928441 0)
(1.00023 -0.00129124 0)
(1.00024 -0.00164228 0)
(1.00024 -0.00198475 0)
(1.00025 -0.00232128 0)
(1.00025 -0.00265162 0)
(1.00025 -0.00297531 0)
(1.00025 -0.00329181 0)
(1.00026 -0.00360034 0)
(1.00026 -0.00389993 0)
(1.00026 -0.00418948 0)
(1.00025 -0.00446782 0)
(1.00025 -0.00473374 0)
(1.00025 -0.00498604 0)
(1.00024 -0.00522358 0)
(1.00023 -0.00544527 0)
(1.00022 -0.00565016 0)
(1.0002 -0.00583745 0)
(1.00019 -0.00600648 0)
(1.00017 -0.00615678 0)
(1.00015 -0.00628804 0)
(1.00013 -0.00640018 0)
(1.00011 -0.00649325 0)
(1.00008 -0.00656753 0)
(1.00006 -0.00662342 0)
(1.00003 -0.0066615 0)
(1 -0.00668248 0)
(0.999977 -0.00668719 0)
(0.999948 -0.00667654 0)
(0.999919 -0.00665155 0)
(0.99989 -0.00661325 0)
(0.999861 -0.00656272 0)
(0.999832 -0.00650103 0)
(0.999804 -0.00642921 0)
(0.999776 -0.00634828 0)
(0.999748 -0.00625922 0)
(0.999722 -0.00616299 0)
(0.999695 -0.00606056 0)
(0.99967 -0.0059529 0)
(0.999645 -0.00584099 0)
(0.99962 -0.00572579 0)
(0.999597 -0.00560825 0)
(0.999574 -0.00548924 0)
(0.999552 -0.00536957 0)
(0.999531 -0.0052499 0)
(0.999513 -0.00513079 0)
(0.999497 -0.00501265 0)
(0.999484 -0.00489577 0)
(0.999475 -0.00478032 0)
(0.999469 -0.00466642 0)
(0.999465 -0.0045542 0)
(0.99946 -0.00444382 0)
(0.999452 -0.00433551 0)
(0.999442 -0.00422951 0)
(0.999428 -0.00412607 0)
(0.999412 -0.00402536 0)
(0.999394 -0.00392753 0)
(0.999376 -0.00383265 0)
(0.999359 -0.00374077 0)
(0.999342 -0.00365188 0)
(0.999327 -0.00356601 0)
(0.999313 -0.00348313 0)
(0.999301 -0.00340324 0)
(0.99929 -0.00332631 0)
(0.999281 -0.00325233 0)
(0.999272 -0.00318129 0)
(0.999265 -0.00311326 0)
(1.0007 -0.000270114 0)
(1.0007 -0.000961761 0)
(1.00071 -0.00152545 0)
(1.00072 -0.00212606 0)
(1.00073 -0.00270484 0)
(1.00074 -0.00327059 0)
(1.00076 -0.00382793 0)
(1.00077 -0.00437604 0)
(1.00078 -0.00491439 0)
(1.00079 -0.00544221 0)
(1.0008 -0.00595824 0)
(1.0008 -0.00646093 0)
(1.0008 -0.0069485 0)
(1.0008 -0.00741901 0)
(1.00079 -0.00787046 0)
(1.00077 -0.00830083 0)
(1.00075 -0.00870815 0)
(1.00073 -0.00909058 0)
(1.0007 -0.00944644 0)
(1.00066 -0.00977428 0)
(1.00061 -0.0100729 0)
(1.00056 -0.0103413 0)
(1.00051 -0.010579 0)
(1.00044 -0.0107855 0)
(1.00038 -0.0109609 0)
(1.00031 -0.0111054 0)
(1.00023 -0.0112196 0)
(1.00016 -0.0113043 0)
(1.00008 -0.0113605 0)
(0.999993 -0.0113894 0)
(0.99991 -0.0113924 0)
(0.999825 -0.0113712 0)
(0.999741 -0.0113272 0)
(0.999656 -0.0112622 0)
(0.999572 -0.011178 0)
(0.999489 -0.0110764 0)
(0.999408 -0.0109591 0)
(0.999328 -0.010828 0)
(0.999251 -0.0106848 0)
(0.999175 -0.0105313 0)
(0.999102 -0.0103691 0)
(0.999031 -0.0101996 0)
(0.998963 -0.010024 0)
(0.998898 -0.00984344 0)
(0.998835 -0.00965897 0)
(0.998775 -0.00947148 0)
(0.998717 -0.00928185 0)
(0.998661 -0.00909098 0)
(0.998605 -0.00889976 0)
(0.99855 -0.00870913 0)
(0.998494 -0.00852002 0)
(0.998438 -0.00833326 0)
(0.998384 -0.00814955 0)
(0.998335 -0.00796937 0)
(0.998291 -0.00779304 0)
(0.998254 -0.00762072 0)
(0.998223 -0.00745251 0)
(0.998199 -0.00728852 0)
(0.998179 -0.0071289 0)
(0.998162 -0.00697379 0)
(0.998148 -0.00682337 0)
(0.998134 -0.00667777 0)
(0.998122 -0.00653711 0)
(0.998109 -0.00640148 0)
(0.998097 -0.00627093 0)
(0.998086 -0.00614546 0)
(0.998074 -0.00602506 0)
(0.998063 -0.00590972 0)
(0.998052 -0.00579943 0)
(1.00134 -0.000371355 0)
(1.00135 -0.00131027 0)
(1.00137 -0.00207886 0)
(1.00138 -0.00290228 0)
(1.00141 -0.00369315 0)
(1.00143 -0.00446887 0)
(1.00146 -0.00523481 0)
(1.00149 -0.00598974 0)
(1.00151 -0.0067333 0)
(1.00153 -0.00746459 0)
(1.00155 -0.00818197 0)
(1.00156 -0.00888338 0)
(1.00157 -0.00956642 0)
(1.00156 -0.0102284 0)
(1.00155 -0.0108667 0)
(1.00152 -0.0114783 0)
(1.00149 -0.0120604 0)
(1.00144 -0.0126104 0)
(1.00139 -0.0131258 0)
(1.00132 -0.0136043 0)
(1.00124 -0.0140441 0)
(1.00114 -0.0144436 0)
(1.00104 -0.0148018 0)
(1.00093 -0.0151177 0)
(1.0008 -0.0153912 0)
(1.00067 -0.0156224 0)
(1.00053 -0.0158117 0)
(1.00039 -0.0159599 0)
(1.00024 -0.0160683 0)
(1.00008 -0.0161384 0)
(0.999924 -0.0161719 0)
(0.999764 -0.0161707 0)
(0.999604 -0.0161371 0)
(0.999443 -0.0160732 0)
(0.999284 -0.0159815 0)
(0.999127 -0.0158643 0)
(0.998972 -0.015724 0)
(0.99882 -0.0155629 0)
(0.998673 -0.0153832 0)
(0.998529 -0.015187 0)
(0.99839 -0.0149765 0)
(0.998256 -0.0147536 0)
(0.998128 -0.0145205 0)
(0.998004 -0.014279 0)
(0.997886 -0.0140311 0)
(0.997774 -0.0137786 0)
(0.997667 -0.0135232 0)
(0.997568 -0.0132664 0)
(0.997476 -0.0130095 0)
(0.997394 -0.0127534 0)
(0.99732 -0.0124989 0)
(0.997254 -0.0122467 0)
(0.997193 -0.0119973 0)
(0.997134 -0.0117515 0)
(0.997076 -0.0115099 0)
(0.997015 -0.0112732 0)
(0.996953 -0.0110421 0)
(0.996889 -0.0108171 0)
(0.996826 -0.0105984 0)
(0.996765 -0.0103864 0)
(0.996707 -0.0101811 0)
(0.996652 -0.00998248 0)
(0.996602 -0.00979067 0)
(0.996556 -0.00960562 0)
(0.996514 -0.00942731 0)
(0.996475 -0.00925571 0)
(0.996439 -0.00909077 0)
(0.996406 -0.00893245 0)
(0.996376 -0.00878077 0)
(1.0021 -0.000462613 0)
(1.00211 -0.00162383 0)
(1.00214 -0.00258077 0)
(1.00217 -0.00360731 0)
(1.0022 -0.00459133 0)
(1.00225 -0.00556049 0)
(1.00229 -0.00651948 0)
(1.00234 -0.00746702 0)
(1.00238 -0.00840317 0)
(1.00242 -0.00932698 0)
(1.00245 -0.0102365 0)
(1.00248 -0.0111294 0)
(1.00249 -0.0120026 0)
(1.00249 -0.0128528 0)
(1.00247 -0.0136766 0)
(1.00244 -0.0144703 0)
(1.0024 -0.0152301 0)
(1.00233 -0.0159526 0)
(1.00225 -0.0166344 0)
(1.00215 -0.0172723 0)
(1.00203 -0.0178636 0)
(1.00189 -0.0184061 0)
(1.00173 -0.0188979 0)
(1.00156 -0.0193376 0)
(1.00137 -0.0197245 0)
(1.00117 -0.0200582 0)
(1.00096 -0.020339 0)
(1.00073 -0.0205676 0)
(1.0005 -0.0207452 0)
(1.00025 -0.0208734 0)
(1.00001 -0.020954 0)
(0.999757 -0.0209894 0)
(0.999504 -0.020982 0)
(0.999251 -0.0209346 0)
(0.998999 -0.0208499 0)
(0.998749 -0.0207309 0)
(0.998502 -0.0205806 0)
(0.99826 -0.0204019 0)
(0.998024 -0.020198 0)
(0.997794 -0.0199718 0)
(0.99757 -0.0197262 0)
(0.997354 -0.0194642 0)
(0.997145 -0.0191882 0)
(0.996944 -0.0189007 0)
(0.996751 -0.0186037 0)
(0.996566 -0.0182993 0)
(0.996389 -0.0179892 0)
(0.996218 -0.0176752 0)
(0.996053 -0.0173587 0)
(0.995892 -0.0170416 0)
(0.995735 -0.0167253 0)
(0.995581 -0.0164115 0)
(0.995435 -0.0161014 0)
(0.995297 -0.0157959 0)
(0.995171 -0.0154957 0)
(0.995059 -0.0152012 0)
(0.994959 -0.0149128 0)
(0.99487 -0.0146306 0)
(0.99479 -0.0143552 0)
(0.994717 -0.0140869 0)
(0.994649 -0.013826 0)
(0.994586 -0.0135729 0)
(0.994525 -0.0133279 0)
(0.994468 -0.0130911 0)
(0.994413 -0.0128627 0)
(0.994362 -0.0126427 0)
(0.994313 -0.0124312 0)
(0.994267 -0.0122281 0)
(0.994223 -0.0120336 0)
(1.00294 -0.000544216 0)
(1.00295 -0.00190349 0)
(1.003 -0.00303113 0)
(1.00304 -0.00424062 0)
(1.0031 -0.0053991 0)
(1.00316 -0.00654485 0)
(1.00323 -0.00768095 0)
(1.0033 -0.00880651 0)
(1.00337 -0.00992219 0)
(1.00343 -0.0110271 0)
(1.00349 -0.012119 0)
(1.00353 -0.0131953 0)
(1.00356 -0.0142527 0)
(1.00357 -0.0152872 0)
(1.00356 -0.0162946 0)
(1.00353 -0.0172705 0)
(1.00347 -0.0182104 0)
(1.00339 -0.0191097 0)
(1.00329 -0.0199641 0)
(1.00316 -0.0207696 0)
(1.003 -0.0215225 0)
(1.00281 -0.0222195 0)
(1.0026 -0.022858 0)
(1.00237 -0.0234358 0)
(1.00211 -0.0239515 0)
(1.00183 -0.024404 0)
(1.00153 -0.0247933 0)
(1.00122 -0.0251196 0)
(1.00089 -0.0253838 0)
(1.00055 -0.0255875 0)
(1.0002 -0.0257325 0)
(0.999839 -0.0258213 0)
(0.999478 -0.0258566 0)
(0.999114 -0.0258413 0)
(0.998751 -0.0257787 0)
(0.998389 -0.0256723 0)
(0.998032 -0.0255257 0)
(0.997679 -0.0253423 0)
(0.997334 -0.0251257 0)
(0.996996 -0.0248794 0)
(0.996667 -0.0246068 0)
(0.996348 -0.0243111 0)
(0.99604 -0.0239954 0)
(0.995743 -0.023663 0)
(0.995457 -0.0233167 0)
(0.995183 -0.0229595 0)
(0.994922 -0.0225942 0)
(0.994675 -0.0222231 0)
(0.994444 -0.0218487 0)
(0.994229 -0.0214725 0)
(0.994032 -0.0210962 0)
(0.993851 -0.020721 0)
(0.993682 -0.0203481 0)
(0.993522 -0.0199786 0)
(0.993365 -0.0196137 0)
(0.993209 -0.0192549 0)
(0.993055 -0.0189033 0)
(0.992903 -0.0185597 0)
(0.992757 -0.0182249 0)
(0.992617 -0.0178994 0)
(0.992485 -0.0175833 0)
(0.992362 -0.0172769 0)
(0.992248 -0.0169803 0)
(0.992142 -0.0166937 0)
(0.992044 -0.016417 0)
(0.991954 -0.0161503 0)
(0.99187 -0.0158936 0)
(0.991792 -0.0156469 0)
(0.99172 -0.0154103 0)
(1.00386 -0.000617457 0)
(1.00388 -0.00215228 0)
(1.00393 -0.00343248 0)
(1.004 -0.00480576 0)
(1.00408 -0.00612121 0)
(1.00417 -0.00742726 0)
(1.00427 -0.00872505 0)
(1.00437 -0.0100145 0)
(1.00447 -0.011297 0)
(1.00456 -0.0125715 0)
(1.00464 -0.0138361 0)
(1.00471 -0.0150879 0)
(1.00477 -0.0163232 0)
(1.0048 -0.0175376 0)
(1.0048 -0.0187263 0)
(1.00478 -0.0198842 0)
(1.00472 -0.0210058 0)
(1.00464 -0.0220858 0)
(1.00451 -0.0231189 0)
(1.00436 -0.0240999 0)
(1.00416 -0.0250241 0)
(1.00393 -0.0258872 0)
(1.00367 -0.0266856 0)
(1.00337 -0.027416 0)
(1.00304 -0.0280761 0)
(1.00268 -0.0286642 0)
(1.00229 -0.0291793 0)
(1.00188 -0.0296212 0)
(1.00145 -0.0299904 0)
(1.00099 -0.0302879 0)
(1.00053 -0.0305156 0)
(1.00005 -0.0306757 0)
(0.999563 -0.0307712 0)
(0.999072 -0.0308051 0)
(0.99858 -0.0307812 0)
(0.998088 -0.0307031 0)
(0.997601 -0.0305748 0)
(0.997119 -0.0304006 0)
(0.996646 -0.0301844 0)
(0.996182 -0.0299307 0)
(0.99573 -0.0296435 0)
(0.995291 -0.029327 0)
(0.994866 -0.028985 0)
(0.994456 -0.0286213 0)
(0.994061 -0.0282392 0)
(0.993682 -0.0278418 0)
(0.993318 -0.027432 0)
(0.99297 -0.0270123 0)
(0.992634 -0.0265854 0)
(0.99231 -0.0261535 0)
(0.991995 -0.0257193 0)
(0.991691 -0.0252851 0)
(0.9914 -0.024853 0)
(0.991126 -0.0244247 0)
(0.990873 -0.0240016 0)
(0.990643 -0.0235846 0)
(0.990434 -0.0231744 0)
(0.990245 -0.0227719 0)
(0.99007 -0.0223778 0)
(0.989908 -0.0219927 0)
(0.989756 -0.0216175 0)
(0.989613 -0.0212528 0)
(0.989477 -0.0208989 0)
(0.989348 -0.0205564 0)
(0.989225 -0.0202255 0)
(0.98911 -0.0199063 0)
(0.989001 -0.0195989 0)
(0.988899 -0.0193034 0)
(0.988802 -0.0190198 0)
(1.00484 -0.000683135 0)
(1.00486 -0.00237245 0)
(1.00493 -0.00378733 0)
(1.00502 -0.00530626 0)
(1.00513 -0.00676196 0)
(1.00525 -0.00821247 0)
(1.00538 -0.00965691 0)
(1.00552 -0.0110963 0)
(1.00566 -0.0125327 0)
(1.00579 -0.0139654 0)
(1.00591 -0.0153925 0)
(1.00602 -0.016811 0)
(1.0061 -0.0182171 0)
(1.00616 -0.0196061 0)
(1.00619 -0.0209727 0)
(1.00618 -0.022311 0)
(1.00614 -0.023615 0)
(1.00605 -0.0248784 0)
(1.00592 -0.0260947 0)
(1.00575 -0.0272579 0)
(1.00552 -0.0283621 0)
(1.00525 -0.0294019 0)
(1.00494 -0.0303723 0)
(1.00458 -0.0312692 0)
(1.00417 -0.032089 0)
(1.00373 -0.0328289 0)
(1.00325 -0.0334871 0)
(1.00273 -0.0340624 0)
(1.00218 -0.0345548 0)
(1.00161 -0.0349647 0)
(1.00102 -0.0352934 0)
(1.00041 -0.035543 0)
(0.999784 -0.0357162 0)
(0.999152 -0.0358161 0)
(0.998515 -0.0358463 0)
(0.997878 -0.0358109 0)
(0.997244 -0.0357142 0)
(0.996616 -0.0355607 0)
(0.995997 -0.0353549 0)
(0.995389 -0.0351016 0)
(0.994795 -0.0348054 0)
(0.994217 -0.0344708 0)
(0.993656 -0.0341022 0)
(0.993114 -0.033704 0)
(0.992591 -0.0332805 0)
(0.992088 -0.032836 0)
(0.991606 -0.0323746 0)
(0.991147 -0.0319002 0)
(0.990713 -0.0314163 0)
(0.990305 -0.0309261 0)
(0.989925 -0.0304322 0)
(0.989571 -0.0299368 0)
(0.989239 -0.0294417 0)
(0.988924 -0.0289488 0)
(0.988619 -0.0284599 0)
(0.98832 -0.0279769 0)
(0.988029 -0.0275016 0)
(0.987747 -0.0270354 0)
(0.987476 -0.0265793 0)
(0.987219 -0.0261342 0)
(0.986979 -0.0257007 0)
(0.986754 -0.0252792 0)
(0.986544 -0.0248701 0)
(0.98635 -0.0244737 0)
(0.986169 -0.0240903 0)
(0.986001 -0.02372 0)
(0.985845 -0.0233629 0)
(0.985699 -0.0230191 0)
(0.985564 -0.0226888 0)
(1.00585 -0.000741625 0)
(1.00589 -0.0025658 0)
(1.00598 -0.00409859 0)
(1.00609 -0.00574602 0)
(1.00623 -0.007326 0)
(1.00638 -0.00890559 0)
(1.00656 -0.0104819 0)
(1.00674 -0.0120574 0)
(1.00692 -0.0136347 0)
(1.0071 -0.0152134 0)
(1.00727 -0.0167919 0)
(1.00742 -0.0183674 0)
(1.00754 -0.0199359 0)
(1.00764 -0.0214927 0)
(1.0077 -0.0230319 0)
(1.00772 -0.0245473 0)
(1.00769 -0.0260321 0)
(1.00761 -0.0274792 0)
(1.00748 -0.0288812 0)
(1.0073 -0.0302311 0)
(1.00705 -0.0315217 0)
(1.00675 -0.0327464 0)
(1.00639 -0.0338991 0)
(1.00597 -0.0349742 0)
(1.00549 -0.0359669 0)
(1.00496 -0.0368733 0)
(1.00439 -0.0376904 0)
(1.00377 -0.0384159 0)
(1.00311 -0.0390486 0)
(1.00241 -0.0395884 0)
(1.00168 -0.0400359 0)
(1.00093 -0.0403924 0)
(1.00016 -0.0406605 0)
(0.999372 -0.0408429 0)
(0.998578 -0.0409435 0)
(0.997781 -0.0409662 0)
(0.996984 -0.0409158 0)
(0.996192 -0.0407972 0)
(0.99541 -0.0406156 0)
(0.994639 -0.0403764 0)
(0.993885 -0.040085 0)
(0.993148 -0.039747 0)
(0.992431 -0.0393678 0)
(0.991737 -0.0389526 0)
(0.991066 -0.0385065 0)
(0.99042 -0.0380338 0)
(0.989799 -0.0375386 0)
(0.989203 -0.0370249 0)
(0.98863 -0.0364959 0)
(0.988078 -0.0359552 0)
(0.987545 -0.0354059 0)
(0.987031 -0.0348514 0)
(0.98654 -0.034295 0)
(0.986075 -0.0337395 0)
(0.985642 -0.0331872 0)
(0.985244 -0.03264 0)
(0.984879 -0.0320994 0)
(0.984543 -0.0315669 0)
(0.984231 -0.0310437 0)
(0.983939 -0.0305311 0)
(0.983664 -0.0300303 0)
(0.983404 -0.0295422 0)
(0.983158 -0.0290677 0)
(0.982925 -0.0286075 0)
(0.982705 -0.0281619 0)
(0.982497 -0.0277314 0)
(0.982302 -0.0273161 0)
(0.982118 -0.0269162 0)
(0.981946 -0.026532 0)
(1.00689 -0.000793305 0)
(1.00694 -0.00273447 0)
(1.00705 -0.00437015 0)
(1.00718 -0.00613029 0)
(1.00735 -0.00781961 0)
(1.00755 -0.00951373 0)
(1.00777 -0.0112078 0)
(1.008 -0.0129057 0)
(1.00823 -0.0146108 0)
(1.00846 -0.016323 0)
(1.00868 -0.0180412 0)
(1.00888 -0.0197629 0)
(1.00906 -0.0214842 0)
(1.0092 -0.0232002 0)
(1.0093 -0.0249049 0)
(1.00936 -0.0265918 0)
(1.00936 -0.0282534 0)
(1.0093 -0.0298819 0)
(1.00918 -0.0314693 0)
(1.00899 -0.0330073 0)
(1.00873 -0.0344879 0)
(1.00841 -0.0359031 0)
(1.00801 -0.0372454 0)
(1.00754 -0.038508 0)
(1.007 -0.0396847 0)
(1.00639 -0.0407702 0)
(1.00573 -0.04176 0)
(1.005 -0.0426507 0)
(1.00422 -0.04344 0)
(1.0034 -0.0441264 0)
(1.00253 -0.0447098 0)
(1.00163 -0.0451908 0)
(1.00071 -0.0455712 0)
(0.999758 -0.0458536 0)
(0.998795 -0.0460413 0)
(0.997823 -0.0461384 0)
(0.996849 -0.0461495 0)
(0.995878 -0.0460797 0)
(0.994915 -0.0459345 0)
(0.993965 -0.0457195 0)
(0.993031 -0.0454404 0)
(0.992118 -0.045103 0)
(0.991228 -0.044713 0)
(0.990363 -0.0442762 0)
(0.989527 -0.0437981 0)
(0.98872 -0.0432845 0)
(0.987944 -0.042741 0)
(0.9872 -0.042173 0)
(0.986492 -0.041586 0)
(0.985821 -0.0409848 0)
(0.985189 -0.0403736 0)
(0.984596 -0.0397561 0)
(0.984038 -0.0391353 0)
(0.983507 -0.0385138 0)
(0.982998 -0.037894 0)
(0.982504 -0.0372785 0)
(0.982026 -0.0366698 0)
(0.981566 -0.0360699 0)
(0.981127 -0.0354805 0)
(0.980712 -0.0349031 0)
(0.980322 -0.0343387 0)
(0.979958 -0.0337883 0)
(0.979618 -0.0332525 0)
(0.979301 -0.0327321 0)
(0.979006 -0.0322275 0)
(0.978731 -0.0317391 0)
(0.978474 -0.0312674 0)
(0.978234 -0.0308125 0)
(0.97801 -0.0303748 0)
(1.00794 -0.000838691 0)
(1.008 -0.00288101 0)
(1.00813 -0.00460653 0)
(1.00829 -0.00646524 0)
(1.0085 -0.0082503 0)
(1.00874 -0.0100455 0)
(1.009 -0.0118441 0)
(1.00928 -0.0136513 0)
(1.00957 -0.0154713 0)
(1.00986 -0.0173046 0)
(1.01014 -0.0191505 0)
(1.0104 -0.0210069 0)
(1.01063 -0.0228702 0)
(1.01083 -0.0247355 0)
(1.01098 -0.026597 0)
(1.01108 -0.0284477 0)
(1.01112 -0.0302799 0)
(1.0111 -0.0320853 0)
(1.011 -0.0338552 0)
(1.01082 -0.0355803 0)
(1.01056 -0.0372517 0)
(1.01022 -0.0388602 0)
(1.0098 -0.0403972 0)
(1.00929 -0.0418542 0)
(1.00869 -0.0432238 0)
(1.00802 -0.044499 0)
(1.00727 -0.045674 0)
(1.00644 -0.0467439 0)
(1.00555 -0.0477049 0)
(1.0046 -0.0485544 0)
(1.00359 -0.0492908 0)
(1.00254 -0.0499141 0)
(1.00145 -0.0504249 0)
(1.00033 -0.0508252 0)
(0.999185 -0.0511178 0)
(0.998028 -0.0513065 0)
(0.996862 -0.0513958 0)
(0.995696 -0.0513908 0)
(0.994536 -0.0512974 0)
(0.993387 -0.0511217 0)
(0.992255 -0.0508703 0)
(0.991144 -0.0505499 0)
(0.990058 -0.0501674 0)
(0.989002 -0.0497298 0)
(0.987976 -0.0492436 0)
(0.986985 -0.0487152 0)
(0.986029 -0.0481504 0)
(0.985109 -0.0475543 0)
(0.984226 -0.0469318 0)
(0.983376 -0.0462872 0)
(0.982558 -0.0456249 0)
(0.98177 -0.0449493 0)
(0.981015 -0.0442648 0)
(0.980299 -0.0435758 0)
(0.979627 -0.042886 0)
(0.979003 -0.0421987 0)
(0.978426 -0.0415164 0)
(0.97789 -0.0408416 0)
(0.97739 -0.0401762 0)
(0.976921 -0.0395221 0)
(0.976478 -0.0388812 0)
(0.976059 -0.0382548 0)
(0.975663 -0.0376443 0)
(0.975289 -0.0370507 0)
(0.974936 -0.0364748 0)
(0.974604 -0.0359172 0)
(0.974291 -0.0353783 0)
(0.973998 -0.0348587 0)
(0.973722 -0.0343584 0)
(1.00899 -0.000878383 0)
(1.00906 -0.00300797 0)
(1.00921 -0.00481206 0)
(1.0094 -0.00675672 0)
(1.00964 -0.0086253 0)
(1.00993 -0.0105093 0)
(1.01024 -0.0124 0)
(1.01058 -0.0143043 0)
(1.01093 -0.0162269 0)
(1.01128 -0.0181689 0)
(1.01162 -0.0201304 0)
(1.01195 -0.0221097 0)
(1.01225 -0.0241035 0)
(1.01251 -0.0261075 0)
(1.01272 -0.0281156 0)
(1.01288 -0.0301211 0)
(1.01297 -0.0321161 0)
(1.01298 -0.034092 0)
(1.01292 -0.0360393 0)
(1.01277 -0.0379485 0)
(1.01252 -0.0398094 0)
(1.01218 -0.0416119 0)
(1.01174 -0.0433462 0)
(1.0112 -0.0450027 0)
(1.01056 -0.0465721 0)
(1.00982 -0.0480463 0)
(1.00899 -0.0494177 0)
(1.00808 -0.0506797 0)
(1.00707 -0.0518271 0)
(1.006 -0.0528558 0)
(1.00485 -0.0537628 0)
(1.00365 -0.0545465 0)
(1.00239 -0.0552067 0)
(1.00109 -0.0557442 0)
(0.999764 -0.0561611 0)
(0.998411 -0.0564606 0)
(0.997043 -0.0566469 0)
(0.995669 -0.0567249 0)
(0.994296 -0.0567003 0)
(0.992933 -0.0565792 0)
(0.991586 -0.0563683 0)
(0.990261 -0.0560743 0)
(0.988963 -0.0557042 0)
(0.987696 -0.0552649 0)
(0.986466 -0.0547634 0)
(0.985274 -0.0542067 0)
(0.984124 -0.053602 0)
(0.983018 -0.0529567 0)
(0.981958 -0.0522779 0)
(0.980947 -0.0515726 0)
(0.979987 -0.0508474 0)
(0.979081 -0.0501077 0)
(0.978225 -0.0493581 0)
(0.977412 -0.0486026 0)
(0.976635 -0.0478444 0)
(0.975887 -0.0470869 0)
(0.975166 -0.0463334 0)
(0.974475 -0.0455869 0)
(0.973818 -0.0448501 0)
(0.973196 -0.0441251 0)
(0.972612 -0.043414 0)
(0.972065 -0.0427181 0)
(0.971554 -0.0420388 0)
(0.971076 -0.0413772 0)
(0.970629 -0.0407343 0)
(0.970212 -0.0401108 0)
(0.969822 -0.0395074 0)
(0.969457 -0.0389246 0)
(0.969116 -0.0383628 0)
(1.01002 -0.000912962 0)
(1.01011 -0.00311747 0)
(1.01027 -0.00498999 0)
(1.0105 -0.00700918 0)
(1.01078 -0.00895015 0)
(1.01111 -0.0109117 0)
(1.01148 -0.012883 0)
(1.01187 -0.0148726 0)
(1.01228 -0.0168858 0)
(1.0127 -0.0189246 0)
(1.01311 -0.0209896 0)
(1.01351 -0.0230798 0)
(1.01388 -0.0251924 0)
(1.01421 -0.0273235 0)
(1.01449 -0.0294674 0)
(1.01472 -0.0316176 0)
(1.01487 -0.0337662 0)
(1.01494 -0.0359045 0)
(1.01492 -0.0380227 0)
(1.0148 -0.0401109 0)
(1.01458 -0.0421581 0)
(1.01425 -0.0441535 0)
(1.01381 -0.0460861 0)
(1.01325 -0.047945 0)
(1.01258 -0.0497199 0)
(1.0118 -0.0514007 0)
(1.0109 -0.0529784 0)
(1.0099 -0.0544449 0)
(1.0088 -0.055793 0)
(1.0076 -0.0570168 0)
(1.00632 -0.0581119 0)
(1.00497 -0.0590751 0)
(1.00355 -0.0599045 0)
(1.00207 -0.0605999 0)
(1.00055 -0.0611622 0)
(0.998993 -0.0615936 0)
(0.997413 -0.0618975 0)
(0.99582 -0.0620784 0)
(0.994223 -0.0621418 0)
(0.99263 -0.0620939 0)
(0.99105 -0.0619417 0)
(0.989491 -0.0616927 0)
(0.987959 -0.061355 0)
(0.986461 -0.060937 0)
(0.984999 -0.0604471 0)
(0.983581 -0.0598935 0)
(0.982207 -0.0592842 0)
(0.980882 -0.0586263 0)
(0.979606 -0.0579262 0)
(0.978379 -0.0571898 0)
(0.977199 -0.0564226 0)
(0.976064 -0.0556303 0)
(0.974976 -0.0548186 0)
(0.973939 -0.0539935 0)
(0.97296 -0.0531608 0)
(0.972043 -0.0523255 0)
(0.971188 -0.0514916 0)
(0.970392 -0.0506626 0)
(0.969646 -0.0498416 0)
(0.968944 -0.0490315 0)
(0.968282 -0.0482346 0)
(0.967657 -0.0474534 0)
(0.967066 -0.0466897 0)
(0.966509 -0.0459451 0)
(0.965983 -0.045221 0)
(0.965489 -0.0445184 0)
(0.965025 -0.043838 0)
(0.964589 -0.0431806 0)
(0.964181 -0.0425468 0)
(1.01104 -0.000942847 0)
(1.01114 -0.00321085 0)
(1.01132 -0.00514218 0)
(1.01158 -0.00722516 0)
(1.0119 -0.00922806 0)
(1.01228 -0.0112564 0)
(1.0127 -0.0132973 0)
(1.01315 -0.0153608 0)
(1.01363 -0.0174531 0)
(1.01411 -0.0195768 0)
(1.0146 -0.0217333 0)
(1.01507 -0.0239222 0)
(1.01552 -0.0261415 0)
(1.01593 -0.0283878 0)
(1.01629 -0.0306561 0)
(1.01658 -0.03294 0)
(1.0168 -0.035232 0)
(1.01694 -0.0375234 0)
(1.01698 -0.0398047 0)
(1.01691 -0.0420653 0)
(1.01673 -0.0442941 0)
(1.01642 -0.0464795 0)
(1.016 -0.0486097 0)
(1.01544 -0.0506727 0)
(1.01475 -0.0526569 0)
(1.01393 -0.0545508 0)
(1.01298 -0.0563438 0)
(1.01191 -0.0580259 0)
(1.01072 -0.0595883 0)
(1.00942 -0.0610233 0)
(1.00801 -0.0623243 0)
(1.00651 -0.0634865 0)
(1.00493 -0.0645063 0)
(1.00327 -0.0653817 0)
(1.00156 -0.0661123 0)
(0.999795 -0.0666989 0)
(0.997997 -0.0671442 0)
(0.996176 -0.0674516 0)
(0.994341 -0.0676263 0)
(0.992505 -0.067674 0)
(0.990678 -0.0676016 0)
(0.988869 -0.0674164 0)
(0.987086 -0.0671262 0)
(0.985337 -0.0667389 0)
(0.983629 -0.0662627 0)
(0.981968 -0.0657059 0)
(0.980357 -0.065077 0)
(0.978802 -0.0643849 0)
(0.977305 -0.0636388 0)
(0.975869 -0.0628478 0)
(0.974499 -0.062021 0)
(0.973197 -0.0611666 0)
(0.971962 -0.0602914 0)
(0.97079 -0.0594012 0)
(0.969673 -0.0585006 0)
(0.968602 -0.0575943 0)
(0.967575 -0.0566866 0)
(0.966593 -0.055782 0)
(0.965658 -0.0548842 0)
(0.964774 -0.0539968 0)
(0.963942 -0.0531226 0)
(0.963162 -0.0522641 0)
(0.962431 -0.0514234 0)
(0.961746 -0.0506022 0)
(0.961106 -0.0498021 0)
(0.960507 -0.0490245 0)
(0.959946 -0.0482702 0)
(0.959422 -0.0475404 0)
(0.958931 -0.0468358 0)
(1.01203 -0.00096822 0)
(1.01214 -0.00328873 0)
(1.01235 -0.00526936 0)
(1.01263 -0.00740573 0)
(1.01299 -0.00946041 0)
(1.01342 -0.011545 0)
(1.01389 -0.0136447 0)
(1.01441 -0.0157712 0)
(1.01495 -0.017931 0)
(1.01551 -0.0201279 0)
(1.01607 -0.0223638 0)
(1.01663 -0.0246394 0)
(1.01715 -0.0269532 0)
(1.01765 -0.0293026 0)
(1.01809 -0.0316832 0)
(1.01846 -0.0340892 0)
(1.01876 -0.0365137 0)
(1.01897 -0.0389483 0)
(1.01908 -0.0413836 0)
(1.01908 -0.0438091 0)
(1.01895 -0.0462135 0)
(1.01868 -0.0485847 0)
(1.01828 -0.0509103 0)
(1.01774 -0.0531775 0)
(1.01705 -0.0553735 0)
(1.01621 -0.0574856 0)
(1.01523 -0.0595016 0)
(1.0141 -0.0614099 0)
(1.01284 -0.0631997 0)
(1.01144 -0.0648613 0)
(1.00991 -0.0663863 0)
(1.00828 -0.0677677 0)
(1.00654 -0.0689999 0)
(1.00471 -0.0700791 0)
(1.00281 -0.0710029 0)
(1.00084 -0.0717708 0)
(0.998817 -0.0723836 0)
(0.99676 -0.072844 0)
(0.99468 -0.0731558 0)
(0.99259 -0.0733242 0)
(0.990501 -0.0733555 0)
(0.988426 -0.0732571 0)
(0.986374 -0.0730373 0)
(0.984354 -0.0727052 0)
(0.982374 -0.0722706 0)
(0.980442 -0.0717437 0)
(0.978564 -0.0711343 0)
(0.976744 -0.070452 0)
(0.974986 -0.0697056 0)
(0.973292 -0.0689028 0)
(0.971662 -0.0680511 0)
(0.970095 -0.0671573 0)
(0.968591 -0.0662288 0)
(0.967153 -0.0652734 0)
(0.965788 -0.0642989 0)
(0.964502 -0.0633126 0)
(0.963296 -0.0623207 0)
(0.962168 -0.0613284 0)
(0.961109 -0.0603402 0)
(0.960113 -0.0593601 0)
(0.959174 -0.0583919 0)
(0.958286 -0.0574388 0)
(0.957449 -0.0565038 0)
(0.95666 -0.0555893 0)
(0.955917 -0.0546974 0)
(0.955218 -0.0538297 0)
(0.954562 -0.0529877 0)
(0.953947 -0.0521725 0)
(0.953371 -0.0513851 0)
(1.01299 -0.000989127 0)
(1.01311 -0.00335138 0)
(1.01334 -0.00537197 0)
(1.01366 -0.00755155 0)
(1.01406 -0.00964808 0)
(1.01453 -0.0117786 0)
(1.01506 -0.0139266 0)
(1.01564 -0.0161052 0)
(1.01625 -0.0183215 0)
(1.01688 -0.02058 0)
(1.01752 -0.0228837 0)
(1.01816 -0.0252338 0)
(1.01877 -0.02763 0)
(1.01935 -0.0300702 0)
(1.01988 -0.0325511 0)
(1.02034 -0.0350676 0)
(1.02073 -0.0376132 0)
(1.02102 -0.0401804 0)
(1.02121 -0.04276 0)
(1.02128 -0.0453418 0)
(1.02121 -0.0479146 0)
(1.02101 -0.0504662 0)
(1.02065 -0.0529838 0)
(1.02014 -0.0554539 0)
(1.01947 -0.0578629 0)
(1.01863 -0.0601969 0)
(1.01763 -0.0624424 0)
(1.01646 -0.0645861 0)
(1.01513 -0.0666154 0)
(1.01366 -0.0685187 0)
(1.01203 -0.0702855 0)
(1.01027 -0.0719065 0)
(1.00839 -0.0733739 0)
(1.0064 -0.0746816 0)
(1.00431 -0.0758253 0)
(1.00213 -0.0768022 0)
(0.999893 -0.0776115 0)
(0.997599 -0.0782541 0)
(0.995268 -0.0787324 0)
(0.992915 -0.0790508 0)
(0.990553 -0.0792147 0)
(0.988197 -0.0792311 0)
(0.985859 -0.0791077 0)
(0.98355 -0.0788532 0)
(0.981281 -0.0784764 0)
(0.979062 -0.0779867 0)
(0.9769 -0.0773937 0)
(0.974802 -0.0767074 0)
(0.972773 -0.0759386 0)
(0.97082 -0.0750987 0)
(0.968945 -0.0741993 0)
(0.967154 -0.0732516 0)
(0.965449 -0.0722656 0)
(0.963829 -0.0712498 0)
(0.962287 -0.0702112 0)
(0.960813 -0.0691559 0)
(0.959403 -0.0680899 0)
(0.958056 -0.0670193 0)
(0.956774 -0.0659498 0)
(0.95556 -0.0648865 0)
(0.954417 -0.0638337 0)
(0.953343 -0.0627953 0)
(0.952336 -0.0617744 0)
(0.951392 -0.0607737 0)
(0.950509 -0.0597959 0)
(0.949682 -0.0588428 0)
(0.948907 -0.0579162 0)
(0.948182 -0.0570178 0)
(0.947504 -0.0561487 0)
(1.01392 -0.00100565 0)
(1.01405 -0.00339926 0)
(1.0143 -0.00545076 0)
(1.01465 -0.00766375 0)
(1.01509 -0.00979255 0)
(1.01561 -0.0119592 0)
(1.01619 -0.0141454 0)
(1.01683 -0.0163656 0)
(1.01751 -0.0186276 0)
(1.01822 -0.0209367 0)
(1.01893 -0.0232968 0)
(1.01965 -0.0257099 0)
(1.02035 -0.0281766 0)
(1.02102 -0.0306959 0)
(1.02165 -0.0332651 0)
(1.02221 -0.0358802 0)
(1.02269 -0.0385356 0)
(1.02307 -0.0412244 0)
(1.02335 -0.0439381 0)
(1.0235 -0.0466671 0)
(1.02351 -0.0494003 0)
(1.02338 -0.0521259 0)
(1.02308 -0.0548308 0)
(1.02262 -0.0575012 0)
(1.02198 -0.0601229 0)
(1.02116 -0.0626811 0)
(1.02015 -0.0651611 0)
(1.01897 -0.0675481 0)
(1.01761 -0.0698279 0)
(1.01607 -0.071987 0)
(1.01436 -0.0740125 0)
(1.0125 -0.0758931 0)
(1.01049 -0.0776186 0)
(1.00834 -0.0791803 0)
(1.00607 -0.0805714 0)
(1.0037 -0.0817869 0)
(1.00125 -0.0828236 0)
(0.998717 -0.0836805 0)
(0.996133 -0.0843582 0)
(0.993511 -0.0848593 0)
(0.990868 -0.085188 0)
(0.98822 -0.0853501 0)
(0.985581 -0.0853529 0)
(0.982966 -0.0852049 0)
(0.980387 -0.0849162 0)
(0.977855 -0.0844975 0)
(0.97538 -0.0839606 0)
(0.972969 -0.0833174 0)
(0.970631 -0.0825791 0)
(0.96837 -0.0817563 0)
(0.96619 -0.0808586 0)
(0.964091 -0.0798948 0)
(0.962074 -0.078874 0)
(0.960141 -0.0778058 0)
(0.958298 -0.0767004 0)
(0.956551 -0.0755679 0)
(0.954907 -0.0744176 0)
(0.953363 -0.0732569 0)
(0.951912 -0.0720925 0)
(0.950548 -0.0709301 0)
(0.949261 -0.0697752 0)
(0.948047 -0.0686326 0)
(0.946902 -0.0675068 0)
(0.945823 -0.0664013 0)
(0.944809 -0.0653195 0)
(0.943856 -0.0642639 0)
(0.942962 -0.0632368 0)
(0.942124 -0.0622401 0)
(0.941339 -0.0612754 0)
(1.01481 -0.00101801 0)
(1.01496 -0.00343321 0)
(1.01523 -0.00550714 0)
(1.0156 -0.00774434 0)
(1.01608 -0.00989645 0)
(1.01665 -0.0120899 0)
(1.01728 -0.014305 0)
(1.01798 -0.0165571 0)
(1.01873 -0.0188548 0)
(1.01951 -0.0212042 0)
(1.02031 -0.02361 0)
(1.02111 -0.0260751 0)
(1.0219 -0.0286012 0)
(1.02266 -0.031188 0)
(1.02338 -0.0338342 0)
(1.02404 -0.0365365 0)
(1.02462 -0.0392904 0)
(1.02511 -0.0420899 0)
(1.02548 -0.0449274 0)
(1.02573 -0.0477939 0)
(1.02583 -0.0506791 0)
(1.02578 -0.0535713 0)
(1.02556 -0.0564578 0)
(1.02516 -0.0593247 0)
(1.02457 -0.0621573 0)
(1.02379 -0.0649404 0)
(1.02281 -0.0676582 0)
(1.02162 -0.0702948 0)
(1.02024 -0.0728344 0)
(1.01867 -0.0752617 0)
(1.0169 -0.0775619 0)
(1.01495 -0.0797212 0)
(1.01283 -0.0817269 0)
(1.01054 -0.0835678 0)
(1.00812 -0.0852344 0)
(1.00556 -0.0867191 0)
(1.0029 -0.0880159 0)
(1.00014 -0.0891213 0)
(0.997302 -0.0900336 0)
(0.99441 -0.0907532 0)
(0.991481 -0.0912827 0)
(0.988531 -0.0916264 0)
(0.98558 -0.0917905 0)
(0.982643 -0.0917829 0)
(0.979735 -0.0916123 0)
(0.976871 -0.0912885 0)
(0.974064 -0.0908216 0)
(0.971324 -0.0902227 0)
(0.968661 -0.0895035 0)
(0.966084 -0.0886768 0)
(0.963599 -0.0877566 0)
(0.961213 -0.0867571 0)
(0.958931 -0.0856922 0)
(0.956756 -0.0845742 0)
(0.954686 -0.0834132 0)
(0.952711 -0.082218 0)
(0.950824 -0.0809965 0)
(0.949022 -0.0797572 0)
(0.947307 -0.0785082 0)
(0.945682 -0.0772569 0)
(0.944149 -0.0760099 0)
(0.942709 -0.0747728 0)
(0.941357 -0.0735506 0)
(0.94009 -0.0723474 0)
(0.938903 -0.0711672 0)
(0.937792 -0.0700131 0)
(0.936753 -0.0688877 0)
(0.935781 -0.0677938 0)
(0.934872 -0.0667333 0)
(1.01566 -0.00102656 0)