/*--------------------------------*- C++ -*----------------------------------*\
  =========                 |
  \\      /  F ield         | OpenFOAM: The Open Source CFD Toolbox
   \\    /   O peration     | Website:  https://openfoam.org
    \\  /    A nd           | Version:  10
     \\/     M anipulation  |
\*---------------------------------------------------------------------------*/
FoamFile
{
    format      ascii;
    class       volVectorField;
    location    "420";
    object      U;
}
// * * * * * * * * * * * * * * * * * * * * * * * * * * * * * * * * * * * * * //

dimensions      [0 1 -1 0 0 0 0];

internalField   nonuniform List<vector> 
66268
(
(0.999999 -5.58501e-05 0)
(0.999999 -0.000204605 0)
(0.999999 -0.000325681 0)
(0.999999 -0.000451619 0)
(0.999999 -0.000573426 0)
(0.999999 -0.000691641 0)
(0.999999 -0.000806937 0)
(0.999999 -0.000919262 0)
(0.999999 -0.00102838 0)
(0.999999 -0.00113404 0)
(0.999999 -0.00123594 0)
(0.999999 -0.00133371 0)
(0.999999 -0.00142696 0)
(0.999999 -0.00151528 0)
(0.999999 -0.00159827 0)
(0.999999 -0.00167553 0)
(0.999999 -0.00174671 0)
(0.999999 -0.0018115 0)
(0.999999 -0.00186961 0)
(0.999999 -0.00192084 0)
(0.999999 -0.00196504 0)
(0.999999 -0.00200212 0)
(0.999999 -0.00203208 0)
(0.999999 -0.00205495 0)
(0.999999 -0.00207087 0)
(0.999999 -0.00208 0)
(0.999999 -0.00208257 0)
(0.999999 -0.00207888 0)
(0.999999 -0.00206924 0)
(0.999999 -0.002054 0)
(0.999999 -0.00203357 0)
(0.999999 -0.00200834 0)
(0.999999 -0.00197873 0)
(0.999999 -0.00194515 0)
(0.999999 -0.00190803 0)
(0.999999 -0.0018678 0)
(0.999999 -0.00182485 0)
(0.999999 -0.00177959 0)
(0.999999 -0.00173239 0)
(0.999999 -0.0016836 0)
(0.999999 -0.00163352 0)
(0.999999 -0.00158243 0)
(0.999999 -0.00153056 0)
(0.999999 -0.00147813 0)
(0.999999 -0.00142535 0)
(0.999999 -0.00137241 0)
(0.999997 -0.00131954 0)
(0.999995 -0.00126698 0)
(0.99999 -0.00121498 0)
(0.999984 -0.00116383 0)
(0.999976 -0.00111381 0)
(0.999966 -0.00106514 0)
(0.999957 -0.00101795 0)
(0.999949 -0.000972306 0)
(0.999944 -0.000928166 0)
(0.999941 -0.000885464 0)
(0.999942 -0.000844128 0)
(0.999944 -0.000804111 0)
(0.999948 -0.000765394 0)
(0.999953 -0.000727985 0)
(0.999958 -0.000691905 0)
(0.999963 -0.000657178 0)
(0.999967 -0.000623824 0)
(0.999971 -0.000591853 0)
(0.999975 -0.000561266 0)
(0.999978 -0.000532047 0)
(0.99998 -0.000504172 0)
(0.999982 -0.000477654 0)
(0.999983 -0.000452502 0)
(1.00024 -0.000170986 0)
(1.00024 -0.000617278 0)
(1.00024 -0.000980128 0)
(1.00025 -0.00136161 0)
(1.00025 -0.00172947 0)
(1.00025 -0.00208664 0)
(1.00025 -0.00243577 0)
(1.00026 -0.00277638 0)
(1.00026 -0.00310784 0)
(1.00026 -0.00342944 0)
(1.00026 -0.00374027 0)
(1.00026 -0.00403925 0)
(1.00025 -0.00432519 0)
(1.00025 -0.00459688 0)
(1.00024 -0.00485308 0)
(1.00023 -0.00509261 0)
(1.00022 -0.00531436 0)
(1.00021 -0.00551736 0)
(1.00019 -0.00570075 0)
(1.00017 -0.00586386 0)
(1.00015 -0.0060062 0)
(1.00013 -0.00612749 0)
(1.00011 -0.00622763 0)
(1.00008 -0.00630673 0)
(1.00006 -0.00636509 0)
(1.00003 -0.00640319 0)
(1 -0.00642169 0)
(0.999969 -0.00642137 0)
(0.999938 -0.00640315 0)
(0.999907 -0.00636806 0)
(0.999875 -0.00631722 0)
(0.999842 -0.00625184 0)
(0.99981 -0.00617315 0)
(0.999778 -0.0060824 0)
(0.999746 -0.0059808 0)
(0.999715 -0.00586956 0)
(0.999684 -0.00574986 0)
(0.999654 -0.00562283 0)
(0.999624 -0.00548956 0)
(0.999595 -0.00535111 0)
(0.999567 -0.00520853 0)
(0.999539 -0.00506283 0)
(0.999513 -0.00491498 0)
(0.999487 -0.00476593 0)
(0.999462 -0.0046165 0)
(0.999438 -0.00446745 0)
(0.999416 -0.00431938 0)
(0.999397 -0.0041728 0)
(0.999382 -0.00402803 0)
(0.999371 -0.0038853 0)
(0.999363 -0.00374476 0)
(0.999359 -0.00360653 0)
(0.999355 -0.00347079 0)
(0.99935 -0.00333781 0)
(0.999343 -0.00320789 0)
(0.999332 -0.00308135 0)
(0.999318 -0.00295845 0)
(0.999302 -0.00283938 0)
(0.999285 -0.00272424 0)
(0.999267 -0.00261303 0)
(0.99925 -0.00250576 0)
(0.999235 -0.00240235 0)
(0.99922 -0.00230276 0)
(0.999208 -0.00220692 0)
(0.999196 -0.00211477 0)
(0.999187 -0.00202625 0)
(0.999178 -0.00194129 0)
(0.99917 -0.00185985 0)
(0.999163 -0.00178199 0)
(1.00075 -0.000286069 0)
(1.00074 -0.00101835 0)
(1.00075 -0.00161382 0)
(1.00076 -0.00224683 0)
(1.00077 -0.00285472 0)
(1.00078 -0.00344602 0)
(1.00079 -0.00402551 0)
(1.00079 -0.00459194 0)
(1.0008 -0.00514447 0)
(1.0008 -0.00568207 0)
(1.0008 -0.00620325 0)
(1.0008 -0.00670624 0)
(1.00079 -0.00718914 0)
(1.00078 -0.0076499 0)
(1.00076 -0.00808647 0)
(1.00073 -0.00849685 0)
(1.0007 -0.00887914 0)
(1.00066 -0.00923163 0)
(1.00062 -0.0095528 0)
(1.00057 -0.00984145 0)
(1.00051 -0.0100966 0)
(1.00044 -0.0103177 0)
(1.00038 -0.0105044 0)
(1.0003 -0.0106567 0)
(1.00022 -0.010775 0)
(1.00014 -0.0108599 0)
(1.00005 -0.0109124 0)
(0.999965 -0.0109336 0)
(0.999873 -0.0109251 0)
(0.99978 -0.0108883 0)
(0.999687 -0.0108251 0)
(0.999593 -0.0107373 0)
(0.999499 -0.0106269 0)
(0.999406 -0.0104959 0)
(0.999314 -0.0103463 0)
(0.999224 -0.0101801 0)
(0.999136 -0.00999932 0)
(0.99905 -0.00980584 0)
(0.998967 -0.00960159 0)
(0.998887 -0.00938839 0)
(0.998809 -0.00916789 0)
(0.998735 -0.00894162 0)
(0.998665 -0.00871094 0)
(0.998597 -0.00847705 0)
(0.998533 -0.00824104 0)
(0.998472 -0.00800391 0)
(0.998414 -0.00776659 0)
(0.998357 -0.00752999 0)
(0.998301 -0.007295 0)
(0.998245 -0.0070625 0)
(0.998189 -0.00683332 0)
(0.998135 -0.0066082 0)
(0.998083 -0.00638772 0)
(0.998037 -0.00617229 0)
(0.997997 -0.00596215 0)
(0.997964 -0.00575747 0)
(0.997938 -0.00555835 0)
(0.997917 -0.00536492 0)
(0.997899 -0.00517732 0)
(0.997884 -0.00499569 0)
(0.997871 -0.00482015 0)
(0.997859 -0.0046508 0)
(0.997847 -0.00448771 0)
(0.997835 -0.00433089 0)
(0.997824 -0.00418034 0)
(0.997813 -0.004036 0)
(0.997802 -0.00389779 0)
(0.997792 -0.00376567 0)
(0.997782 -0.00363956 0)
(1.00143 -0.000396546 0)
(1.00143 -0.00139834 0)
(1.00145 -0.00221649 0)
(1.00146 -0.00309129 0)
(1.00148 -0.00392847 0)
(1.0015 -0.0047457 0)
(1.00152 -0.00554854 0)
(1.00154 -0.00633506 0)
(1.00155 -0.00710454 0)
(1.00156 -0.00785571 0)
(1.00157 -0.00858657 0)
(1.00156 -0.00929477 0)
(1.00155 -0.00997766 0)
(1.00153 -0.0106324 0)
(1.00149 -0.0112562 0)
(1.00145 -0.0118462 0)
(1.00139 -0.0123995 0)
(1.00132 -0.0129137 0)
(1.00124 -0.0133864 0)
(1.00115 -0.0138158 0)
(1.00104 -0.0142004 0)
(1.00093 -0.0145389 0)
(1.0008 -0.0148307 0)
(1.00066 -0.0150756 0)
(1.00051 -0.0152737 0)
(1.00036 -0.0154257 0)
(1.0002 -0.0155327 0)
(1.00003 -0.0155959 0)
(0.999856 -0.0156173 0)
(0.999681 -0.0155986 0)
(0.999504 -0.0155423 0)
(0.999327 -0.0154507 0)
(0.99915 -0.0153264 0)
(0.998974 -0.015172 0)
(0.998801 -0.0149902 0)
(0.998631 -0.0147838 0)
(0.998465 -0.0145553 0)
(0.998303 -0.0143075 0)
(0.998147 -0.0140428 0)
(0.997995 -0.0137635 0)
(0.99785 -0.0134721 0)
(0.99771 -0.0131707 0)
(0.997576 -0.0128613 0)
(0.997448 -0.0125462 0)
(0.997327 -0.0122272 0)
(0.997212 -0.0119061 0)
(0.997104 -0.0115845 0)
(0.997003 -0.011264 0)
(0.996912 -0.0109458 0)
(0.996829 -0.0106307 0)
(0.996756 -0.0103198 0)
(0.996691 -0.0100135 0)
(0.99663 -0.00971252 0)
(0.996571 -0.00941756 0)
(0.996512 -0.00912925 0)
(0.996451 -0.00884821 0)
(0.99639 -0.00857493 0)
(0.996328 -0.0083098 0)
(0.996268 -0.00805305 0)
(0.996211 -0.00780479 0)
(0.996157 -0.00756505 0)
(0.996107 -0.00733383 0)
(0.996061 -0.00711106 0)
(0.99602 -0.00689667 0)
(0.995982 -0.0066906 0)
(0.995947 -0.00649272 0)
(0.995916 -0.00630293 0)
(0.995887 -0.00612115 0)
(0.995861 -0.00594732 0)
(1.00224 -0.000499123 0)
(1.00224 -0.00175057 0)
(1.00227 -0.00277969 0)
(1.0023 -0.00388148 0)
(1.00233 -0.0049337 0)
(1.00236 -0.00596535 0)
(1.0024 -0.00698102 0)
(1.00243 -0.00797859 0)
(1.00246 -0.00895776 0)
(1.00248 -0.00991702 0)
(1.00249 -0.010854 0)
(1.00249 -0.0117658 0)
(1.00247 -0.0126492 0)
(1.00245 -0.0135006 0)
(1.0024 -0.0143163 0)
(1.00234 -0.0150926 0)
(1.00226 -0.0158258 0)
(1.00216 -0.0165124 0)
(1.00204 -0.0171494 0)
(1.0019 -0.0177339 0)
(1.00174 -0.0182636 0)
(1.00156 -0.0187368 0)
(1.00137 -0.0191521 0)
(1.00115 -0.0195087 0)
(1.00093 -0.0198066 0)
(1.00069 -0.0200462 0)
(1.00044 -0.0202282 0)
(1.00018 -0.0203542 0)
(0.999907 -0.020426 0)
(0.999634 -0.0204458 0)
(0.999356 -0.0204162 0)
(0.999076 -0.0203401 0)
(0.998797 -0.0202207 0)
(0.998518 -0.0200611 0)
(0.998243 -0.0198647 0)
(0.997972 -0.0196351 0)
(0.997706 -0.0193755 0)
(0.997446 -0.0190893 0)
(0.997194 -0.01878 0)
(0.99695 -0.0184507 0)
(0.996714 -0.0181046 0)
(0.996487 -0.0177446 0)
(0.996269 -0.0173734 0)
(0.99606 -0.0169936 0)
(0.995861 -0.0166073 0)
(0.995671 -0.0162167 0)
(0.99549 -0.0158235 0)
(0.995316 -0.0154295 0)
(0.995149 -0.0150361 0)
(0.994987 -0.0146451 0)
(0.99483 -0.0142578 0)
(0.994679 -0.0138755 0)
(0.994536 -0.0134995 0)
(0.994404 -0.0131306 0)
(0.994285 -0.0127696 0)
(0.994179 -0.0124169 0)
(0.994086 -0.0120729 0)
(0.994003 -0.011738 0)
(0.993928 -0.0114126 0)
(0.993859 -0.0110969 0)
(0.993796 -0.0107912 0)
(0.993736 -0.0104958 0)
(0.993679 -0.0102107 0)
(0.993626 -0.00993611 0)
(0.993575 -0.00967195 0)
(0.993527 -0.0094182 0)
(0.993482 -0.00917477 0)
(0.99344 -0.00894159 0)
(0.993401 -0.00871859 0)
(1.00315 -0.000592705 0)
(1.00316 -0.00207116 0)
(1.0032 -0.00329542 0)
(1.00324 -0.00460573 0)
(1.00329 -0.00585609 0)
(1.00334 -0.00708735 0)
(1.00339 -0.00830202 0)
(1.00345 -0.00949844 0)
(1.00349 -0.0106768 0)
(1.00353 -0.0118354 0)
(1.00355 -0.0129717 0)
(1.00356 -0.0140825 0)
(1.00356 -0.0151637 0)
(1.00353 -0.0162113 0)
(1.00348 -0.0172208 0)
(1.0034 -0.0181874 0)
(1.0033 -0.0191067 0)
(1.00317 -0.0199742 0)
(1.00301 -0.0207858 0)
(1.00282 -0.0215377 0)
(1.00261 -0.0222268 0)
(1.00237 -0.0228503 0)
(1.0021 -0.0234062 0)
(1.00181 -0.023893 0)
(1.00149 -0.0243099 0)
(1.00116 -0.024657 0)
(1.00081 -0.0249347 0)
(1.00044 -0.0251443 0)
(1.00006 -0.0252875 0)
(0.999672 -0.0253667 0)
(0.999277 -0.0253846 0)
(0.998877 -0.0253444 0)
(0.998476 -0.0252495 0)
(0.998075 -0.0251036 0)
(0.997677 -0.0249105 0)
(0.997284 -0.0246743 0)
(0.996897 -0.0243989 0)
(0.996519 -0.0240883 0)
(0.996151 -0.0237465 0)
(0.995793 -0.0233772 0)
(0.995447 -0.0229843 0)
(0.995113 -0.0225711 0)
(0.994792 -0.0221413 0)
(0.994484 -0.0216979 0)
(0.994189 -0.0212442 0)
(0.993909 -0.0207832 0)
(0.993642 -0.0203175 0)
(0.993391 -0.0198497 0)
(0.993157 -0.019382 0)
(0.992939 -0.0189164 0)
(0.992739 -0.0184544 0)
(0.992554 -0.0179973 0)
(0.992382 -0.0175465 0)
(0.992218 -0.017103 0)
(0.992059 -0.0166679 0)
(0.991905 -0.0162421 0)
(0.991754 -0.0158267 0)
(0.991609 -0.0154222 0)
(0.99147 -0.0150292 0)
(0.99134 -0.0146481 0)
(0.991218 -0.0142791 0)
(0.991105 -0.0139223 0)
(0.991001 -0.0135778 0)
(0.990905 -0.0132457 0)
(0.990817 -0.0129259 0)
(0.990735 -0.0126184 0)
(0.99066 -0.0123231 0)
(0.990591 -0.01204 0)
(0.990527 -0.0117689 0)
(1.00416 -0.000676937 0)
(1.00417 -0.00235734 0)
(1.00422 -0.0037567 0)
(1.00428 -0.00525437 0)
(1.00435 -0.00668359 0)
(1.00442 -0.00809669 0)
(1.0045 -0.00949367 0)
(1.00458 -0.0108738 0)
(1.00465 -0.0122379 0)
(1.00471 -0.0135842 0)
(1.00476 -0.01491 0)
(1.00479 -0.0162117 0)
(1.00479 -0.0174852 0)
(1.00477 -0.0187255 0)
(1.00472 -0.0199275 0)
(1.00464 -0.0210856 0)
(1.00452 -0.0221945 0)
(1.00436 -0.0232487 0)
(1.00417 -0.024243 0)
(1.00394 -0.0251727 0)
(1.00367 -0.0260334 0)
(1.00337 -0.0268215 0)
(1.00303 -0.0275339 0)
(1.00265 -0.0281682 0)
(1.00224 -0.0287229 0)
(1.00181 -0.0291973 0)
(1.00135 -0.0295912 0)
(1.00086 -0.0299054 0)
(1.00036 -0.0301415 0)
(0.999845 -0.0303014 0)
(0.999316 -0.0303879 0)
(0.99878 -0.0304041 0)
(0.998239 -0.0303538 0)
(0.997698 -0.0302408 0)
(0.997158 -0.0300696 0)
(0.996624 -0.0298446 0)
(0.996097 -0.0295705 0)
(0.99558 -0.0292521 0)
(0.995074 -0.028894 0)
(0.994582 -0.0285009 0)
(0.994104 -0.0280774 0)
(0.993643 -0.0276278 0)
(0.993199 -0.0271564 0)
(0.992772 -0.0266669 0)
(0.992363 -0.0261629 0)
(0.991973 -0.0256476 0)
(0.9916 -0.0251239 0)
(0.991244 -0.0245944 0)
(0.990903 -0.0240617 0)
(0.990576 -0.023528 0)
(0.990263 -0.0229956 0)
(0.989963 -0.0224668 0)
(0.98968 -0.0219435 0)
(0.989415 -0.0214274 0)
(0.989172 -0.02092 0)
(0.988951 -0.0204225 0)
(0.98875 -0.0199356 0)
(0.988567 -0.0194603 0)
(0.988399 -0.0189972 0)
(0.988242 -0.0185469 0)
(0.988096 -0.0181099 0)
(0.987959 -0.0176867 0)
(0.987829 -0.0172776 0)
(0.987708 -0.0168827 0)
(0.987593 -0.0165022 0)
(0.987486 -0.0161361 0)
(0.987385 -0.0157843 0)
(0.987291 -0.0154468 0)
(0.987203 -0.0151236 0)
(1.00523 -0.000751611 0)
(1.00525 -0.00260781 0)
(1.00532 -0.00416003 0)
(1.00539 -0.00582248 0)
(1.00548 -0.0074099 0)
(1.00559 -0.00898529 0)
(1.0057 -0.0105461 0)
(1.00581 -0.0120931 0)
(1.00592 -0.0136273 0)
(1.00601 -0.0151473 0)
(1.00609 -0.0166505 0)
(1.00614 -0.0181331 0)
(1.00617 -0.0195906 0)
(1.00616 -0.0210176 0)
(1.00612 -0.0224085 0)
(1.00604 -0.0237569 0)
(1.00591 -0.0250565 0)
(1.00574 -0.0263009 0)
(1.00552 -0.0274839 0)
(1.00525 -0.0285997 0)
(1.00494 -0.0296427 0)
(1.00457 -0.0306081 0)
(1.00416 -0.0314916 0)
(1.0037 -0.0322899 0)
(1.0032 -0.0330004 0)
(1.00265 -0.0336212 0)
(1.00208 -0.0341516 0)
(1.00147 -0.0345915 0)
(1.00084 -0.0349417 0)
(1.00018 -0.0352039 0)
(0.999507 -0.0353804 0)
(0.998821 -0.0354745 0)
(0.998126 -0.0354896 0)
(0.997427 -0.03543 0)
(0.996729 -0.0353001 0)
(0.996035 -0.0351048 0)
(0.995349 -0.034849 0)
(0.994673 -0.034538 0)
(0.994012 -0.0341769 0)
(0.993367 -0.0337707 0)
(0.99274 -0.0333245 0)
(0.992133 -0.0328431 0)
(0.991548 -0.0323315 0)
(0.990985 -0.0317941 0)
(0.990444 -0.0312357 0)
(0.989927 -0.0306605 0)
(0.989434 -0.0300727 0)
(0.988966 -0.0294764 0)
(0.988523 -0.0288751 0)
(0.988107 -0.0282721 0)
(0.987718 -0.0276701 0)
(0.987356 -0.0270714 0)
(0.987016 -0.0264779 0)
(0.986694 -0.0258914 0)
(0.986387 -0.0253134 0)
(0.986092 -0.0247454 0)
(0.985808 -0.0241887 0)
(0.985538 -0.0236446 0)
(0.985281 -0.0231141 0)
(0.985041 -0.0225977 0)
(0.984816 -0.0220962 0)
(0.984607 -0.02161 0)
(0.984413 -0.0211393 0)
(0.984234 -0.0206845 0)
(0.984068 -0.0202457 0)
(0.983913 -0.0198229 0)
(0.983771 -0.0194162 0)
(0.983638 -0.0190255 0)
(0.983515 -0.018651 0)
(1.00634 -0.000816854 0)
(1.00638 -0.00282351 0)
(1.00646 -0.00450684 0)
(1.00655 -0.00631201 0)
(1.00668 -0.00803727 0)
(1.00682 -0.00975537 0)
(1.00696 -0.0114615 0)
(1.00711 -0.0131578 0)
(1.00726 -0.0148461 0)
(1.00739 -0.0165251 0)
(1.00751 -0.0181925 0)
(1.0076 -0.0198445 0)
(1.00765 -0.0214764 0)
(1.00767 -0.0230826 0)
(1.00765 -0.0246569 0)
(1.00758 -0.0261923 0)
(1.00746 -0.0276818 0)
(1.00728 -0.0291181 0)
(1.00704 -0.0304938 0)
(1.00674 -0.031802 0)
(1.00638 -0.033036 0)
(1.00596 -0.0341896 0)
(1.00547 -0.0352574 0)
(1.00493 -0.0362347 0)
(1.00434 -0.0371175 0)
(1.00369 -0.037903 0)
(1.003 -0.0385891 0)
(1.00227 -0.0391748 0)
(1.0015 -0.0396602 0)
(1.00069 -0.0400462 0)
(0.999867 -0.0403344 0)
(0.99902 -0.0405277 0)
(0.99816 -0.0406293 0)
(0.997291 -0.0406432 0)
(0.99642 -0.040574 0)
(0.995551 -0.0404267 0)
(0.994689 -0.0402066 0)
(0.993838 -0.0399194 0)
(0.993002 -0.039571 0)
(0.992184 -0.0391673 0)
(0.991387 -0.0387145 0)
(0.990613 -0.0382183 0)
(0.989864 -0.0376847 0)
(0.989142 -0.0371191 0)
(0.988447 -0.0365268 0)
(0.987781 -0.0359123 0)
(0.987144 -0.0352801 0)
(0.986535 -0.0346341 0)
(0.985953 -0.0339778 0)
(0.985397 -0.0333146 0)
(0.984866 -0.0326477 0)
(0.984358 -0.0319804 0)
(0.983877 -0.0313155 0)
(0.983425 -0.0306559 0)
(0.983004 -0.0300039 0)
(0.982615 -0.0293615 0)
(0.982257 -0.0287303 0)
(0.981927 -0.0281118 0)
(0.981621 -0.027507 0)
(0.981335 -0.0269171 0)
(0.981067 -0.026343 0)
(0.980815 -0.0257854 0)
(0.980579 -0.025245 0)
(0.980357 -0.0247223 0)
(0.980149 -0.0242175 0)
(0.979954 -0.0237308 0)
(0.979771 -0.0232623 0)
(0.979601 -0.0228121 0)
(0.979442 -0.0223803 0)
(1.00749 -0.000873175 0)
(1.00753 -0.00300744 0)
(1.00763 -0.00480272 0)
(1.00776 -0.00673065 0)
(1.00791 -0.00857506 0)
(1.00809 -0.0104177 0)
(1.00828 -0.0122518 0)
(1.00847 -0.0140811 0)
(1.00866 -0.0159079 0)
(1.00884 -0.0177316 0)
(1.009 -0.0195499 0)
(1.00913 -0.0213595 0)
(1.00923 -0.0231556 0)
(1.00928 -0.0249325 0)
(1.00929 -0.0266836 0)
(1.00924 -0.0284014 0)
(1.00913 -0.0300783 0)
(1.00895 -0.031706 0)
(1.0087 -0.0332763 0)
(1.00838 -0.0347812 0)
(1.00799 -0.0362127 0)
(1.00752 -0.0375633 0)
(1.00698 -0.0388262 0)
(1.00636 -0.0399953 0)
(1.00568 -0.0410652 0)
(1.00494 -0.0420316 0)
(1.00413 -0.0428913 0)
(1.00327 -0.043642 0)
(1.00236 -0.0442824 0)
(1.00141 -0.0448126 0)
(1.00042 -0.0452333 0)
(0.999406 -0.0455466 0)
(0.99837 -0.0457554 0)
(0.99732 -0.0458632 0)
(0.996263 -0.0458745 0)
(0.995205 -0.0457943 0)
(0.994151 -0.0456283 0)
(0.993107 -0.0453824 0)
(0.992079 -0.0450627 0)
(0.991069 -0.0446755 0)
(0.990083 -0.0442272 0)
(0.989124 -0.043724 0)
(0.988194 -0.0431721 0)
(0.987295 -0.0425775 0)
(0.98643 -0.0419461 0)
(0.985599 -0.0412839 0)
(0.984803 -0.0405966 0)
(0.984044 -0.0398899 0)
(0.983322 -0.039169 0)
(0.982639 -0.0384389 0)
(0.981995 -0.0377038 0)
(0.98139 -0.0369674 0)
(0.980821 -0.0362327 0)
(0.980283 -0.0355024 0)
(0.979771 -0.0347788 0)
(0.979283 -0.0340641 0)
(0.978816 -0.0333604 0)
(0.978373 -0.0326697 0)
(0.977954 -0.0319934 0)
(0.97756 -0.0313329 0)
(0.977191 -0.0306893 0)
(0.976848 -0.0300634 0)
(0.976528 -0.029456 0)
(0.976231 -0.0288675 0)
(0.975954 -0.0282984 0)
(0.975697 -0.0277491 0)
(0.975458 -0.0272196 0)
(0.975236 -0.0267101 0)
(0.975029 -0.0262209 0)
(1.00865 -0.000921463 0)
(1.0087 -0.00316377 0)
(1.00882 -0.0050551 0)
(1.00897 -0.00708856 0)
(1.00916 -0.00903573 0)
(1.00938 -0.010987 0)
(1.00961 -0.0129336 0)
(1.00985 -0.014881 0)
(1.0101 -0.016832 0)
(1.01033 -0.0187866 0)
(1.01054 -0.0207433 0)
(1.01073 -0.0226988 0)
(1.01087 -0.0246486 0)
(1.01097 -0.026587 0)
(1.01101 -0.0285071 0)
(1.011 -0.0304014 0)
(1.01091 -0.0322614 0)
(1.01074 -0.0340784 0)
(1.0105 -0.0358432 0)
(1.01017 -0.0375466 0)
(1.00975 -0.0391797 0)
(1.00925 -0.0407336 0)
(1.00866 -0.0422 0)
(1.00798 -0.0435715 0)
(1.00722 -0.044841 0)
(1.00638 -0.0460028 0)
(1.00547 -0.047052 0)
(1.00448 -0.0479849 0)
(1.00344 -0.048799 0)
(1.00233 -0.0494928 0)
(1.00119 -0.0500661 0)
(0.999999 -0.0505201 0)
(0.998782 -0.0508567 0)
(0.997542 -0.051079 0)
(0.996287 -0.051191 0)
(0.995026 -0.0511976 0)
(0.993766 -0.0511042 0)
(0.992514 -0.0509168 0)
(0.991275 -0.0506418 0)
(0.990056 -0.0502863 0)
(0.988861 -0.0498572 0)
(0.987695 -0.0493619 0)
(0.986561 -0.0488077 0)
(0.985462 -0.048202 0)
(0.984401 -0.0475518 0)
(0.98338 -0.0468636 0)
(0.9824 -0.0461436 0)
(0.981461 -0.0453973 0)
(0.980564 -0.0446298 0)
(0.979706 -0.0438457 0)
(0.978887 -0.0430496 0)
(0.978105 -0.0422457 0)
(0.977362 -0.0414385 0)
(0.976659 -0.0406318 0)
(0.976 -0.0398295 0)
(0.975386 -0.0390346 0)
(0.974815 -0.0382497 0)
(0.974284 -0.0374772 0)
(0.973789 -0.036719 0)
(0.973326 -0.0359767 0)
(0.972892 -0.0352519 0)
(0.972484 -0.0345458 0)
(0.972101 -0.0338596 0)
(0.971742 -0.0331941 0)
(0.971405 -0.0325499 0)
(0.97109 -0.0319275 0)
(0.970795 -0.0313272 0)
(0.970519 -0.0307494 0)
(0.970262 -0.0301941 0)
(1.0098 -0.000962943 0)
(1.00986 -0.00329703 0)
(1.01 -0.00527119 0)
(1.01018 -0.00739553 0)
(1.01041 -0.00943151 0)
(1.01067 -0.0114775 0)
(1.01095 -0.013523 0)
(1.01125 -0.0155751 0)
(1.01155 -0.0176372 0)
(1.01184 -0.0197102 0)
(1.01211 -0.0217929 0)
(1.01235 -0.0238828 0)
(1.01256 -0.0259756 0)
(1.01271 -0.0280657 0)
(1.0128 -0.0301464 0)
(1.01283 -0.0322098 0)
(1.01278 -0.0342472 0)
(1.01264 -0.0362494 0)
(1.01241 -0.0382064 0)
(1.01209 -0.0401081 0)
(1.01167 -0.0419446 0)
(1.01114 -0.0437056 0)
(1.01051 -0.0453817 0)
(1.00978 -0.0469637 0)
(1.00896 -0.0484431 0)
(1.00803 -0.0498125 0)
(1.00701 -0.0510654 0)
(1.00591 -0.0521965 0)
(1.00473 -0.0532015 0)
(1.00349 -0.0540776 0)
(1.00218 -0.0548233 0)
(1.00081 -0.0554382 0)
(0.999409 -0.0559234 0)
(0.997972 -0.056281 0)
(0.996512 -0.0565143 0)
(0.995037 -0.0566275 0)
(0.993558 -0.056626 0)
(0.992082 -0.0565156 0)
(0.990617 -0.056303 0)
(0.98917 -0.0559953 0)
(0.987747 -0.0555998 0)
(0.986355 -0.0551241 0)
(0.984999 -0.0545757 0)
(0.983682 -0.0539621 0)
(0.982407 -0.0532908 0)
(0.981179 -0.052569 0)
(0.979998 -0.0518044 0)
(0.978867 -0.0510042 0)
(0.977786 -0.0501757 0)
(0.976758 -0.0493256 0)
(0.975783 -0.0484603 0)
(0.974862 -0.0475853 0)
(0.973992 -0.0467052 0)
(0.973169 -0.0458241 0)
(0.972389 -0.0449455 0)
(0.971646 -0.0440725 0)
(0.970938 -0.0432085 0)
(0.970266 -0.0423561 0)
(0.969631 -0.041518 0)
(0.969034 -0.0406962 0)
(0.968474 -0.0398926 0)
(0.967951 -0.0391087 0)
(0.967463 -0.0383457 0)
(0.967008 -0.0376046 0)
(0.966584 -0.0368862 0)
(0.966188 -0.0361911 0)
(0.965819 -0.0355199 0)
(0.965476 -0.0348729 0)
(0.965156 -0.0342505 0)
(1.01093 -0.000998882 0)
(1.01101 -0.00341132 0)
(1.01116 -0.00545707 0)
(1.01137 -0.00765994 0)
(1.01164 -0.00977283 0)
(1.01195 -0.0119016 0)
(1.01228 -0.014034 0)
(1.01264 -0.0161787 0)
(1.013 -0.0183399 0)
(1.01335 -0.0205193 0)
(1.01369 -0.0227165 0)
(1.014 -0.0249293 0)
(1.01427 -0.0271542 0)
(1.01449 -0.0293859 0)
(1.01464 -0.0316177 0)
(1.01472 -0.0338419 0)
(1.01471 -0.0360496 0)
(1.01462 -0.0382312 0)
(1.01442 -0.0403762 0)
(1.01412 -0.042474 0)
(1.0137 -0.0445133 0)
(1.01317 -0.0464832 0)
(1.01252 -0.0483726 0)
(1.01175 -0.050171 0)
(1.01087 -0.0518686 0)
(1.00987 -0.053456 0)
(1.00876 -0.054925 0)
(1.00755 -0.0562686 0)
(1.00625 -0.0574808 0)
(1.00486 -0.058557 0)
(1.00339 -0.0594941 0)
(1.00185 -0.0602901 0)
(1.00026 -0.0609446 0)
(0.998625 -0.0614587 0)
(0.996953 -0.0618345 0)
(0.995257 -0.0620757 0)
(0.993548 -0.0621869 0)
(0.991836 -0.0621736 0)
(0.99013 -0.0620422 0)
(0.988439 -0.0618 0)
(0.986771 -0.0614546 0)
(0.985134 -0.0610142 0)
(0.983533 -0.0604874 0)
(0.981974 -0.0598832 0)
(0.980461 -0.0592103 0)
(0.978999 -0.0584774 0)
(0.977589 -0.0576927 0)
(0.976234 -0.0568638 0)
(0.974936 -0.0559978 0)
(0.973693 -0.0551009 0)
(0.972505 -0.0541792 0)
(0.97137 -0.0532386 0)
(0.970289 -0.0522849 0)
(0.969262 -0.0513239 0)
(0.968294 -0.0503608 0)
(0.967386 -0.0494004 0)
(0.966537 -0.0484469 0)
(0.965745 -0.0475035 0)
(0.965003 -0.0465734 0)
(0.964308 -0.0456591 0)
(0.963656 -0.044763 0)
(0.963043 -0.0438872 0)
(0.962468 -0.0430333 0)
(0.961928 -0.0422029 0)
(0.961421 -0.0413971 0)
(0.960948 -0.0406168 0)
(0.960504 -0.0398626 0)
(0.96009 -0.0391352 0)
(0.959703 -0.038435 0)
(1.01203 -0.00103028 0)
(1.01213 -0.00350987 0)
(1.01231 -0.00561764 0)
(1.01255 -0.00788853 0)
(1.01286 -0.0100681 0)
(1.01321 -0.0122691 0)
(1.0136 -0.0144779 0)
(1.01401 -0.0167042 0)
(1.01444 -0.0189535 0)
(1.01486 -0.0212282 0)
(1.01527 -0.0235285 0)
(1.01565 -0.0258533 0)
(1.01599 -0.0281994 0)
(1.01628 -0.0305621 0)
(1.0165 -0.0329351 0)
(1.01665 -0.0353108 0)
(1.0167 -0.0376805 0)
(1.01666 -0.0400344 0)
(1.01651 -0.0423618 0)
(1.01623 -0.0446514 0)
(1.01584 -0.0468913 0)
(1.01531 -0.0490695 0)
(1.01466 -0.051174 0)
(1.01387 -0.0531928 0)
(1.01294 -0.0551146 0)
(1.01189 -0.0569285 0)
(1.0107 -0.0586244 0)
(1.0094 -0.0601936 0)
(1.00798 -0.0616281 0)
(1.00646 -0.0629214 0)
(1.00484 -0.0640685 0)
(1.00313 -0.0650657 0)
(1.00135 -0.065911 0)
(0.999516 -0.0666039 0)
(0.997629 -0.0671452 0)
(0.995706 -0.0675374 0)
(0.993759 -0.0677842 0)
(0.9918 -0.0678904 0)
(0.98984 -0.0678621 0)
(0.98789 -0.0677064 0)
(0.985959 -0.0674309 0)
(0.984057 -0.067044 0)
(0.982192 -0.0665544 0)
(0.980371 -0.0659709 0)
(0.9786 -0.0653024 0)
(0.976884 -0.0645579 0)
(0.975227 -0.0637462 0)
(0.973633 -0.0628767 0)
(0.972103 -0.0619584 0)
(0.970641 -0.0610003 0)
(0.969248 -0.0600113 0)
(0.967925 -0.0589991 0)
(0.966671 -0.0579707 0)
(0.965484 -0.056932 0)
(0.964359 -0.0558881 0)
(0.963289 -0.0548438 0)
(0.962272 -0.0538036 0)
(0.961306 -0.0527717 0)
(0.960393 -0.0517519 0)
(0.959532 -0.0507476 0)
(0.958725 -0.0497617 0)
(0.957969 -0.0487964 0)
(0.957262 -0.0478538 0)
(0.956602 -0.0469357 0)
(0.955985 -0.0460434 0)
(0.955409 -0.0451781 0)
(0.954872 -0.0443406 0)
(0.954371 -0.0435319 0)
(0.953904 -0.0427525 0)
(1.01312 -0.00105784 0)
(1.01322 -0.00359514 0)
(1.01343 -0.00575678 0)
(1.0137 -0.00808671 0)
(1.01405 -0.0103242 0)
(1.01445 -0.0125882 0)
(1.01489 -0.0148638 0)
(1.01537 -0.017162 0)
(1.01586 -0.0194892 0)
(1.01636 -0.0218487 0)
(1.01684 -0.0242416 0)
(1.0173 -0.0266676 0)
(1.01772 -0.0291241 0)
(1.01809 -0.0316072 0)
(1.01839 -0.034111 0)
(1.01861 -0.0366286 0)
(1.01873 -0.0391513 0)
(1.01875 -0.0416694 0)
(1.01865 -0.0441722 0)
(1.01843 -0.046648 0)
(1.01807 -0.0490846 0)
(1.01757 -0.051469 0)
(1.01692 -0.0537884 0)
(1.01612 -0.0560298 0)
(1.01517 -0.0581802 0)
(1.01407 -0.0602274 0)
(1.01283 -0.0621596 0)
(1.01144 -0.063966 0)
(1.00992 -0.0656369 0)
(1.00828 -0.0671637 0)
(1.00652 -0.0685395 0)
(1.00465 -0.0697586 0)
(1.00269 -0.0708169 0)
(1.00066 -0.0717121 0)
(0.998555 -0.0724434 0)
(0.996402 -0.0730118 0)
(0.994212 -0.0734196 0)
(0.991998 -0.0736708 0)
(0.989773 -0.0737706 0)
(0.98755 -0.0737254 0)
(0.985342 -0.0735427 0)
(0.983158 -0.0732307 0)
(0.981009 -0.0727987 0)
(0.978904 -0.0722563 0)
(0.97685 -0.0716139 0)
(0.974854 -0.0708819 0)
(0.972921 -0.0700707 0)
(0.971056 -0.0691904 0)
(0.969261 -0.0682503 0)
(0.967538 -0.0672589 0)
(0.965887 -0.0662243 0)
(0.964308 -0.0651541 0)
(0.9628 -0.0640562 0)
(0.961365 -0.0629381 0)
(0.960005 -0.0618075 0)
(0.958723 -0.060671 0)
(0.95752 -0.0595348 0)
(0.956392 -0.058404 0)
(0.955335 -0.057283 0)
(0.954343 -0.0561758 0)
(0.953411 -0.0550859 0)
(0.952535 -0.0540166 0)
(0.951713 -0.0529704 0)
(0.950941 -0.0519497 0)
(0.950218 -0.0509565 0)
(0.94954 -0.0499922 0)
(0.948907 -0.0490581 0)
(0.948314 -0.0481553 0)
(0.947761 -0.0472847 0)
(1.01417 -0.00108215 0)
(1.01429 -0.00366915 0)
(1.01451 -0.00587773 0)
(1.01482 -0.008259 0)
(1.01521 -0.0105466 0)
(1.01566 -0.0128656 0)
(1.01616 -0.0151996 0)
(1.0167 -0.0175608 0)
(1.01726 -0.0199567 0)
(1.01783 -0.0223913 0)
(1.01839 -0.0248669 0)
(1.01893 -0.0273837 0)
(1.01944 -0.0299403 0)
(1.01989 -0.0325333 0)
(1.02027 -0.0351578 0)
(1.02057 -0.0378072 0)
(1.02078 -0.0404734 0)
(1.02087 -0.043147 0)
(1.02084 -0.0458174 0)
(1.02068 -0.0484728 0)
(1.02037 -0.0511008 0)
(1.0199 -0.0536881 0)
(1.01928 -0.0562208 0)
(1.01849 -0.0586852 0)
(1.01754 -0.0610671 0)
(1.01641 -0.0633528 0)
(1.01512 -0.0655291 0)
(1.01367 -0.0675833 0)
(1.01207 -0.0695038 0)
(1.01032 -0.0712801 0)
(1.00843 -0.0729028 0)
(1.00641 -0.0743643 0)
(1.00428 -0.0756584 0)
(1.00206 -0.0767805 0)
(0.999745 -0.0777279 0)
(0.997363 -0.0784996 0)
(0.994927 -0.0790965 0)
(0.992453 -0.0795209 0)
(0.989956 -0.0797768 0)
(0.987451 -0.0798699 0)
(0.98495 -0.0798069 0)
(0.982469 -0.0795959 0)
(0.980018 -0.0792458 0)
(0.977608 -0.0787662 0)
(0.975251 -0.0781673 0)
(0.972953 -0.0774591 0)
(0.970723 -0.0766523 0)
(0.968567 -0.0757575 0)
(0.966488 -0.0747859 0)
(0.964492 -0.0737487 0)
(0.962581 -0.0726571 0)
(0.960758 -0.071522 0)
(0.959025 -0.0703532 0)
(0.95738 -0.0691592 0)
(0.955819 -0.0679475 0)
(0.954336 -0.0667247 0)
(0.952927 -0.0654972 0)
(0.951589 -0.0642712 0)
(0.950322 -0.0630521 0)
(0.949128 -0.0618451 0)
(0.948005 -0.0606545 0)
(0.946952 -0.059484 0)
(0.945966 -0.0583367 0)
(0.945045 -0.0572154 0)
(0.944183 -0.0561224 0)
(0.943378 -0.0550595 0)
(0.942627 -0.0540285 0)
(0.941925 -0.0530306 0)
(0.941271 -0.0520671 0)
(1.01519 -0.00110374 0)
(1.01532 -0.00373369 0)
(1.01556 -0.00598334 0)
(1.0159 -0.00840937 0)
(1.01633 -0.0107404 0)
(1.01683 -0.0131074 0)
(1.01739 -0.0154924 0)
(1.01799 -0.0179088 0)
(1.01862 -0.0203649 0)
(1.01927 -0.022866 0)
(1.01991 -0.0254149 0)
(1.02054 -0.028013 0)
(1.02113 -0.0306598 0)
(1.02167 -0.0333528 0)
(1.02215 -0.0360878 0)
(1.02254 -0.038859 0)
(1.02283 -0.041659 0)
(1.02301 -0.044479 0)
(1.02306 -0.0473085 0)
(1.02297 -0.0501363 0)
(1.02272 -0.0529495 0)
(1.02231 -0.0557348 0)
(1.02173 -0.058478 0)
(1.02096 -0.0611644 0)
(1.02002 -0.0637791 0)
(1.01889 -0.0663072 0)
(1.01758 -0.0687339 0)
(1.01608 -0.071045 0)
(1.01441 -0.073227 0)
(1.01257 -0.0752674 0)
(1.01057 -0.0771547 0)
(1.00842 -0.0788789 0)
(1.00613 -0.0804314 0)
(1.00372 -0.0818055 0)
(1.00121 -0.0829962 0)
(0.998603 -0.0840002 0)
(0.995925 -0.0848162 0)
(0.99319 -0.0854448 0)
(0.990417 -0.0858884 0)
(0.98762 -0.0861512 0)
(0.984818 -0.0862389 0)
(0.982025 -0.0861588 0)
(0.979255 -0.0859194 0)
(0.976522 -0.0855302 0)
(0.973839 -0.0850019 0)
(0.971215 -0.0843461 0)
(0.968659 -0.0835748 0)
(0.96618 -0.0827003 0)
(0.963784 -0.0817344 0)
(0.961474 -0.0806884 0)
(0.959255 -0.0795728 0)
(0.957126 -0.0783975 0)
(0.955089 -0.0771725 0)
(0.953144 -0.0759077 0)
(0.951294 -0.0746132 0)
(0.949544 -0.0732986 0)
(0.947894 -0.0719726 0)
(0.946343 -0.0706427 0)
(0.944888 -0.0693155 0)
(0.94352 -0.0679967 0)
(0.942235 -0.0666917 0)
(0.941027 -0.0654052 0)
(0.939892 -0.0641412 0)
(0.938827 -0.0629036 0)
(0.937829 -0.0616952 0)
(0.936894 -0.0605186 0)
(0.93602 -0.0593758 0)
(0.935203 -0.0582688 0)
(0.93444 -0.057199 0)
(1.01617 -0.00112304 0)
(1.01631 -0.00379031 0)
(1.01658 -0.00607615 0)
(1.01695 -0.00854143 0)
(1.01742 -0.0109104 0)
(1.01796 -0.0133193 0)
(1.01858 -0.0157487 0)
(1.01924 -0.0182133 0)
(1.01995 -0.0207224 0)
(1.02067 -0.0232819 0)
(1.02139 -0.0258957 0)
(1.02211 -0.0285664 0)
(1.02279 -0.0312941 0)
(1.02342 -0.0340774 0)
(1.024 -0.0369132 0)
(1.02448 -0.0397966 0)
(1.02487 -0.0427208 0)
(1.02514 -0.0456778 0)
(1.02528 -0.0486578 0)
(1.02527 -0.0516497 0)
(1.0251 -0.0546413 0)
(1.02476 -0.0576189 0)
(1.02424 -0.0605684 0)
(1.02352 -0.0634745 0)
(1.0226 -0.0663216 0)
(1.02149 -0.069094 0)
(1.02017 -0.0717757 0)
(1.01865 -0.074351 0)
(1.01693 -0.0768047 0)
(1.01502 -0.0791224 0)
(1.01293 -0.0812905 0)
(1.01066 -0.0832966 0)
(1.00823 -0.08513 0)
(1.00566 -0.0867812 0)
(1.00295 -0.0882427 0)
(1.00014 -0.0895087 0)
(0.997222 -0.0905756 0)
(0.99423 -0.0914416 0)
(0.99118 -0.092107 0)
(0.98809 -0.0925742 0)
(0.984978 -0.0928472 0)
(0.981863 -0.0929321 0)
(0.97876 -0.0928364 0)
(0.975687 -0.0925692 0)
(0.972658 -0.0921405 0)
(0.969686 -0.0915612 0)
(0.966783 -0.0908428 0)
(0.963959 -0.0899973 0)
(0.961222 -0.0890373 0)
(0.95858 -0.087976 0)
(0.956039 -0.0868272 0)
(0.953604 -0.0856047 0)
(0.951278 -0.0843219 0)
(0.949065 -0.0829907 0)
(0.946961 -0.0816218 0)
(0.944961 -0.0802244 0)
(0.94306 -0.0788073 0)
(0.941255 -0.0773791 0)
(0.939544 -0.0759479 0)
(0.937928 -0.074521 0)
(0.936408 -0.073105 0)
(0.93498 -0.0717056 0)
(0.933643 -0.0703276 0)
(0.932391 -0.0689752 0)
(0.931221 -0.0676521 0)
(0.930127 -0.0663614 0)
(0.929106 -0.0651057 0)
(0.928153 -0.0638874 0)