/*--------------------------------*- C++ -*----------------------------------*\
  =========                 |
  \\      /  F ield         | OpenFOAM: The Open Source CFD Toolbox
   \\    /   O peration     | Website:  https://openfoam.org
    \\  /    A nd           | Version:  10
     \\/     M anipulation  |
\*---------------------------------------------------------------------------*/
FoamFile
{
    format      ascii;
    class       volVectorField;
    location    "430";
    object      U;
}
// * * * * * * * * * * * * * * * * * * * * * * * * * * * * * * * * * * * * * //

dimensions      [0 1 -1 0 0 0 0];

internalField   nonuniform List<vector> 
66268
(
(0.999999 -4.67661e-05 0)
(0.999998 -0.000171127 0)
(0.999999 -0.000272425 0)
(0.999999 -0.000378414 0)
(0.999999 -0.00048153 0)
(0.999999 -0.000582317 0)
(0.999999 -0.000681503 0)
(0.999999 -0.000779166 0)
(0.999999 -0.000875224 0)
(0.999999 -0.000969568 0)
(0.999999 -0.00106203 0)
(0.999999 -0.00115238 0)
(0.999999 -0.00124033 0)
(0.999999 -0.00132557 0)
(0.999999 -0.00140778 0)
(1 -0.00148659 0)
(1 -0.00156166 0)
(1 -0.00163266 0)
(1 -0.00169926 0)
(1 -0.00176117 0)
(1 -0.00181815 0)
(1 -0.00186997 0)
(1 -0.00191648 0)
(1 -0.00195757 0)
(1 -0.00199317 0)
(1 -0.00202328 0)
(1 -0.00204795 0)
(1 -0.00206727 0)
(1 -0.00208139 0)
(1 -0.00209049 0)
(1 -0.0020948 0)
(1 -0.00209457 0)
(1 -0.00209006 0)
(1 -0.00208156 0)
(1 -0.0020694 0)
(1 -0.0020539 0)
(1 -0.00203538 0)
(1 -0.00201416 0)
(1 -0.00199054 0)
(1 -0.00196482 0)
(1 -0.00193723 0)
(1 -0.00190802 0)
(1 -0.00187738 0)
(1 -0.0018455 0)
(1 -0.00181257 0)
(1 -0.00177875 0)
(0.999999 -0.00174422 0)
(0.999996 -0.00170915 0)
(0.999992 -0.00167374 0)
(0.999985 -0.00163818 0)
(0.999977 -0.00160269 0)
(0.999968 -0.00156747 0)
(0.99996 -0.00153269 0)
(0.999953 -0.0014985 0)
(0.999949 -0.00146499 0)
(0.999948 -0.00143225 0)
(0.999949 -0.00140031 0)
(0.999953 -0.00136923 0)
(0.999957 -0.00133904 0)
(0.999963 -0.00130979 0)
(0.999968 -0.00128151 0)
(0.999974 -0.00125423 0)
(0.999978 -0.00122797 0)
(0.999982 -0.00120273 0)
(0.999985 -0.00117852 0)
(0.999988 -0.00115533 0)
(0.99999 -0.00113315 0)
(0.999992 -0.00111199 0)
(0.999993 -0.00109186 0)
(1.0002 -0.000147188 0)
(1.0002 -0.000530508 0)
(1.00021 -0.000841994 0)
(1.00021 -0.00117069 0)
(1.00021 -0.00148859 0)
(1.00022 -0.00179836 0)
(1.00022 -0.0021026 0)
(1.00023 -0.00240121 0)
(1.00023 -0.00269385 0)
(1.00023 -0.00298021 0)
(1.00024 -0.00325972 0)
(1.00024 -0.00353165 0)
(1.00024 -0.00379517 0)
(1.00024 -0.00404935 0)
(1.00024 -0.00429321 0)
(1.00024 -0.00452574 0)
(1.00024 -0.00474596 0)
(1.00023 -0.00495292 0)
(1.00023 -0.00514575 0)
(1.00022 -0.00532368 0)
(1.00021 -0.00548604 0)
(1.0002 -0.0056323 0)
(1.00018 -0.00576209 0)
(1.00017 -0.00587518 0)
(1.00015 -0.00597148 0)
(1.00013 -0.00605109 0)
(1.00011 -0.00611421 0)
(1.00009 -0.00616123 0)
(1.00006 -0.00619272 0)
(1.00004 -0.00620931 0)
(1.00001 -0.00621171 0)
(0.999989 -0.00620066 0)
(0.999962 -0.00617701 0)
(0.999936 -0.00614161 0)
(0.999909 -0.00609536 0)
(0.999882 -0.00603916 0)
(0.999855 -0.00597392 0)
(0.999829 -0.00590053 0)
(0.999802 -0.00581988 0)
(0.999776 -0.00573286 0)
(0.999751 -0.00564039 0)
(0.999726 -0.00554337 0)
(0.999701 -0.00544269 0)
(0.999676 -0.00533921 0)
(0.999653 -0.00523374 0)
(0.99963 -0.00512702 0)
(0.999609 -0.00501971 0)
(0.999589 -0.0049124 0)
(0.999572 -0.00480557 0)
(0.999558 -0.00469963 0)
(0.999547 -0.00459489 0)
(0.999538 -0.00449158 0)
(0.999529 -0.00438988 0)
(0.999519 -0.00428994 0)
(0.999508 -0.00419189 0)
(0.999494 -0.00409586 0)
(0.999479 -0.00400199 0)
(0.999461 -0.00391037 0)
(0.999444 -0.0038211 0)
(0.999426 -0.00373425 0)
(0.999409 -0.00364988 0)
(0.999393 -0.00356805 0)
(0.999379 -0.00348877 0)
(0.999366 -0.00341209 0)
(0.999355 -0.00333803 0)
(0.999344 -0.00326659 0)
(0.999335 -0.00319778 0)
(0.999327 -0.00313161 0)
(0.999319 -0.00306815 0)
(1.00064 -0.000249699 0)
(1.00063 -0.000887208 0)
(1.00065 -0.00140464 0)
(1.00065 -0.00195575 0)
(1.00066 -0.0024852 0)
(1.00068 -0.00300033 0)
(1.00069 -0.00350569 0)
(1.0007 -0.0040005 0)
(1.00071 -0.00448428 0)
(1.00072 -0.00495647 0)
(1.00073 -0.00541611 0)
(1.00073 -0.00586198 0)
(1.00073 -0.00629272 0)
(1.00073 -0.00670681 0)
(1.00073 -0.00710268 0)
(1.00072 -0.00747874 0)
(1.0007 -0.00783344 0)
(1.00068 -0.0081653 0)
(1.00066 -0.00847298 0)
(1.00063 -0.00875529 0)
(1.00059 -0.00901125 0)
(1.00055 -0.0092401 0)
(1.0005 -0.00944131 0)
(1.00045 -0.00961459 0)
(1.0004 -0.00975992 0)
(1.00033 -0.00987753 0)
(1.00027 -0.00996786 0)
(1.0002 -0.0100316 0)
(1.00013 -0.0100697 0)
(1.00006 -0.0100832 0)
(0.99998 -0.0100734 0)
(0.999903 -0.0100415 0)
(0.999825 -0.0099891 0)
(0.999747 -0.00991756 0)
(0.999668 -0.00982847 0)
(0.99959 -0.00972347 0)
(0.999513 -0.00960419 0)
(0.999437 -0.00947228 0)
(0.999362 -0.00932935 0)
(0.999289 -0.00917695 0)
(0.999218 -0.00901651 0)
(0.999148 -0.00884936 0)
(0.999082 -0.00867669 0)
(0.999017 -0.00849956 0)
(0.998955 -0.00831895 0)
(0.998896 -0.00813573 0)
(0.998839 -0.00795076 0)
(0.998784 -0.00776479 0)
(0.998731 -0.00757858 0)
(0.998678 -0.00739282 0)
(0.998627 -0.00720821 0)
(0.998578 -0.00702539 0)
(0.998532 -0.00684499 0)
(0.998489 -0.00666754 0)
(0.998451 -0.00649353 0)
(0.998417 -0.00632336 0)
(0.998388 -0.00615733 0)
(0.998363 -0.00599573 0)
(0.998341 -0.00583875 0)
(0.998321 -0.00568656 0)
(0.998303 -0.00553929 0)
(0.998286 -0.00539703 0)
(0.99827 -0.00525983 0)
(0.998254 -0.00512771 0)
(0.998239 -0.00500067 0)
(0.998224 -0.00487868 0)
(0.998211 -0.00476168 0)
(0.998197 -0.00464966 0)
(0.998185 -0.00454257 0)
(1.00125 -0.000349645 0)
(1.00125 -0.00123027 0)
(1.00126 -0.00194719 0)
(1.00128 -0.00271418 0)
(1.00129 -0.00344664 0)
(1.00131 -0.00415945 0)
(1.00133 -0.00485801 0)
(1.00135 -0.00554079 0)
(1.00137 -0.00620729 0)
(1.00138 -0.0068567 0)
(1.00139 -0.00748767 0)
(1.0014 -0.00809851 0)
(1.0014 -0.00868734 0)
(1.00139 -0.00925211 0)
(1.00137 -0.0097907 0)
(1.00135 -0.0103009 0)
(1.00132 -0.0107808 0)
(1.00127 -0.0112282 0)
(1.00122 -0.0116415 0)
(1.00116 -0.012019 0)
(1.00108 -0.0123595 0)
(1.001 -0.012662 0)
(1.00091 -0.0129258 0)
(1.0008 -0.0131506 0)
(1.00069 -0.0133363 0)
(1.00057 -0.0134834 0)
(1.00044 -0.0135926 0)
(1.00031 -0.0136647 0)
(1.00017 -0.0137011 0)
(1.00003 -0.0137032 0)
(0.999886 -0.0136729 0)
(0.999739 -0.0136121 0)
(0.99959 -0.0135227 0)
(0.999442 -0.0134068 0)
(0.999293 -0.0132667 0)
(0.999147 -0.0131044 0)
(0.999002 -0.0129222 0)
(0.99886 -0.0127222 0)
(0.998721 -0.0125064 0)
(0.998586 -0.0122769 0)
(0.998455 -0.0120356 0)
(0.998329 -0.0117845 0)
(0.998207 -0.0115252 0)
(0.99809 -0.0112598 0)
(0.997978 -0.0109899 0)
(0.997871 -0.0107171 0)
(0.997769 -0.010443 0)
(0.997673 -0.010169 0)
(0.997583 -0.00989635 0)
(0.9975 -0.00962604 0)
(0.997423 -0.009359 0)
(0.997351 -0.00909596 0)
(0.997284 -0.00883752 0)
(0.997219 -0.00858416 0)
(0.997156 -0.00833629 0)
(0.997094 -0.00809428 0)
(0.997033 -0.00785844 0)
(0.996973 -0.00762901 0)
(0.996915 -0.00740623 0)
(0.99686 -0.00719024 0)
(0.996808 -0.00698115 0)
(0.996759 -0.00677906 0)
(0.996713 -0.00658399 0)
(0.996672 -0.00639597 0)
(0.996633 -0.00621498 0)
(0.996597 -0.006041 0)
(0.996564 -0.00587395 0)
(0.996533 -0.00571379 0)
(0.996505 -0.00556051 0)
(1.00197 -0.000444808 0)
(1.00197 -0.00155652 0)
(1.002 -0.0024671 0)
(1.00202 -0.00344108 0)
(1.00204 -0.00436703 0)
(1.00207 -0.00526941 0)
(1.0021 -0.00615295 0)
(1.00213 -0.0070155 0)
(1.00215 -0.00785672 0)
(1.00217 -0.00867558 0)
(1.00219 -0.0094703 0)
(1.00219 -0.0102388 0)
(1.00219 -0.0109786 0)
(1.00217 -0.0116873 0)
(1.00215 -0.0123621 0)
(1.00211 -0.0130004 0)
(1.00205 -0.0135996 0)
(1.00198 -0.0141572 0)
(1.00189 -0.0146709 0)
(1.00179 -0.0151388 0)
(1.00167 -0.0155593 0)
(1.00153 -0.0159312 0)
(1.00138 -0.0162535 0)
(1.00122 -0.0165259 0)
(1.00104 -0.0167483 0)
(1.00085 -0.0169213 0)
(1.00064 -0.0170455 0)
(1.00043 -0.0171223 0)
(1.00021 -0.0171532 0)
(0.999984 -0.0171402 0)
(0.999752 -0.0170853 0)
(0.999517 -0.0169911 0)
(0.99928 -0.0168601 0)
(0.999042 -0.016695 0)
(0.998806 -0.0164986 0)
(0.998571 -0.0162737 0)
(0.998339 -0.0160233 0)
(0.998111 -0.0157501 0)
(0.997889 -0.0154572 0)
(0.997671 -0.0151473 0)
(0.99746 -0.0148232 0)
(0.997255 -0.0144875 0)
(0.997057 -0.0141425 0)
(0.996867 -0.0137905 0)
(0.996683 -0.0134334 0)
(0.996508 -0.013073 0)
(0.99634 -0.0127109 0)
(0.996179 -0.0123485 0)
(0.996025 -0.0119872 0)
(0.995877 -0.0116283 0)
(0.995736 -0.0112727 0)
(0.995601 -0.0109216 0)
(0.995473 -0.010576 0)
(0.995353 -0.0102368 0)
(0.995241 -0.00990456 0)
(0.995138 -0.00958009 0)
(0.995044 -0.00926386 0)
(0.994957 -0.00895628 0)
(0.994877 -0.00865768 0)
(0.994803 -0.00836831 0)
(0.994734 -0.00808834 0)
(0.994669 -0.00781791 0)
(0.994608 -0.00755707 0)
(0.994551 -0.00730586 0)
(0.994497 -0.00706426 0)
(0.994447 -0.0068322 0)
(0.994399 -0.00660958 0)
(0.994355 -0.00639633 0)
(0.994313 -0.00619237 0)
(1.00279 -0.000535137 0)
(1.0028 -0.00186577 0)
(1.00283 -0.00296271 0)
(1.00285 -0.00413376 0)
(1.00289 -0.00524373 0)
(1.00293 -0.00632751 0)
(1.00297 -0.00738793 0)
(1.00301 -0.00842263 0)
(1.00304 -0.00943151 0)
(1.00307 -0.0104133 0)
(1.00309 -0.0113658 0)
(1.00309 -0.0122865 0)
(1.00309 -0.0131727 0)
(1.00306 -0.0140213 0)
(1.00302 -0.014829 0)
(1.00296 -0.0155928 0)
(1.00288 -0.0163094 0)
(1.00278 -0.016976 0)
(1.00265 -0.0175897 0)
(1.00251 -0.0181483 0)
(1.00233 -0.0186496 0)
(1.00214 -0.0190922 0)
(1.00192 -0.019475 0)
(1.00168 -0.0197973 0)
(1.00143 -0.0200591 0)
(1.00115 -0.0202607 0)
(1.00086 -0.0204031 0)
(1.00055 -0.0204876 0)
(1.00023 -0.0205161 0)
(0.999906 -0.0204907 0)
(0.99957 -0.0204141 0)
(0.999228 -0.020289 0)
(0.998883 -0.0201186 0)
(0.998536 -0.0199061 0)
(0.998191 -0.0196551 0)
(0.997847 -0.0193689 0)
(0.997508 -0.019051 0)
(0.997174 -0.018705 0)
(0.996847 -0.0183343 0)
(0.996527 -0.017942 0)
(0.996217 -0.0175315 0)
(0.995916 -0.0171056 0)
(0.995626 -0.0166673 0)
(0.995347 -0.0162193 0)
(0.995079 -0.0157644 0)
(0.994823 -0.015305 0)
(0.994579 -0.0148435 0)
(0.994347 -0.0143821 0)
(0.994127 -0.0139227 0)
(0.99392 -0.0134671 0)
(0.993727 -0.0130166 0)
(0.993545 -0.0125727 0)
(0.993374 -0.0121362 0)
(0.993212 -0.0117082 0)
(0.993059 -0.0112894 0)
(0.992912 -0.0108804 0)
(0.992771 -0.0104819 0)
(0.992638 -0.0100942 0)
(0.992511 -0.00971779 0)
(0.992391 -0.00935296 0)
(0.992279 -0.00899993 0)
(0.992174 -0.00865883 0)
(0.992076 -0.00832975 0)
(0.991985 -0.00801272 0)
(0.9919 -0.00770771 0)
(0.991822 -0.00741466 0)
(0.991749 -0.00713344 0)
(0.991681 -0.00686397 0)
(0.991618 -0.00660615 0)
(1.00369 -0.000621137 0)
(1.0037 -0.00215773 0)
(1.00374 -0.0034309 0)
(1.00378 -0.0047882 0)
(1.00382 -0.00607243 0)
(1.00388 -0.00732888 0)
(1.00393 -0.00855792 0)
(1.00398 -0.00975734 0)
(1.00402 -0.0109273 0)
(1.00406 -0.0120663 0)
(1.00408 -0.0131719 0)
(1.00409 -0.0142412 0)
(1.00408 -0.0152711 0)
(1.00405 -0.0162579 0)
(1.00399 -0.0171982 0)
(1.00391 -0.0180881 0)
(1.00381 -0.018924 0)
(1.00367 -0.0197024 0)
(1.0035 -0.0204202 0)
(1.0033 -0.0210745 0)
(1.00307 -0.0216629 0)
(1.00281 -0.0221834 0)
(1.00252 -0.0226345 0)
(1.0022 -0.0230154 0)
(1.00185 -0.0233257 0)
(1.00148 -0.0235658 0)
(1.00108 -0.0237363 0)
(1.00067 -0.0238389 0)
(1.00024 -0.0238752 0)
(0.999793 -0.0238477 0)
(0.999336 -0.0237592 0)
(0.99887 -0.0236129 0)
(0.9984 -0.0234123 0)
(0.997927 -0.0231611 0)
(0.997454 -0.0228631 0)
(0.996983 -0.0225223 0)
(0.996518 -0.0221429 0)
(0.996061 -0.0217289 0)
(0.995612 -0.0212844 0)
(0.995173 -0.0208135 0)
(0.994747 -0.02032 0)
(0.994334 -0.0198079 0)
(0.993935 -0.0192808 0)
(0.99355 -0.0187419 0)
(0.993181 -0.0181945 0)
(0.992828 -0.0176413 0)
(0.99249 -0.0170849 0)
(0.992168 -0.0165275 0)
(0.991861 -0.0159714 0)
(0.991569 -0.0154183 0)
(0.991291 -0.0148703 0)
(0.991027 -0.0143288 0)
(0.990777 -0.0137954 0)
(0.990542 -0.0132716 0)
(0.990321 -0.0127584 0)
(0.990116 -0.012257 0)
(0.989925 -0.0117681 0)
(0.989747 -0.0112924 0)
(0.989582 -0.0108305 0)
(0.989429 -0.0103827 0)
(0.989285 -0.00994931 0)
(0.989151 -0.00953055 0)
(0.989025 -0.00912655 0)
(0.988907 -0.00873735 0)
(0.988797 -0.00836293 0)
(0.988694 -0.0080032 0)
(0.988598 -0.00765805 0)
(0.988508 -0.00732733 0)
(0.988424 -0.00701091 0)
(1.00468 -0.000702942 0)
(1.00469 -0.00243181 0)
(1.00474 -0.00386941 0)
(1.00478 -0.00540169 0)
(1.00484 -0.00685014 0)
(1.00491 -0.00827016 0)
(1.00498 -0.00965954 0)
(1.00504 -0.0110165 0)
(1.0051 -0.0123416 0)
(1.00514 -0.013633 0)
(1.00517 -0.0148881 0)
(1.00518 -0.0161037 0)
(1.00517 -0.0172763 0)
(1.00513 -0.0184021 0)
(1.00506 -0.0194768 0)
(1.00496 -0.0204964 0)
(1.00483 -0.0214566 0)
(1.00465 -0.0223535 0)
(1.00444 -0.0231834 0)
(1.00418 -0.0239428 0)
(1.00389 -0.024629 0)
(1.00356 -0.0252393 0)
(1.00319 -0.0257719 0)
(1.00278 -0.0262255 0)
(1.00233 -0.0265994 0)
(1.00186 -0.0268936 0)
(1.00135 -0.0271086 0)
(1.00082 -0.0272456 0)
(1.00026 -0.0273065 0)
(0.999683 -0.0272935 0)
(0.999091 -0.0272096 0)
(0.998487 -0.027058 0)
(0.997876 -0.0268425 0)
(0.99726 -0.026567 0)
(0.996644 -0.0262358 0)
(0.996031 -0.0258534 0)
(0.995423 -0.0254244 0)
(0.994824 -0.0249534 0)
(0.994236 -0.0244452 0)
(0.993662 -0.0239041 0)
(0.993102 -0.0233348 0)
(0.99256 -0.0227413 0)
(0.992035 -0.0221278 0)
(0.99153 -0.0214983 0)
(0.991045 -0.0208565 0)
(0.99058 -0.0202061 0)
(0.990136 -0.0195506 0)
(0.989713 -0.018893 0)
(0.989311 -0.0182365 0)
(0.988931 -0.0175837 0)
(0.988573 -0.0169368 0)
(0.988235 -0.0162978 0)
(0.987917 -0.0156686 0)
(0.987617 -0.0150504 0)
(0.987333 -0.0144446 0)
(0.987065 -0.0138522 0)
(0.98681 -0.0132741 0)
(0.98657 -0.0127111 0)
(0.986343 -0.0121639 0)
(0.98613 -0.011633 0)
(0.98593 -0.0111187 0)
(0.985743 -0.0106215 0)
(0.985569 -0.0101414 0)
(0.985407 -0.00967858 0)
(0.985257 -0.00923304 0)
(0.985116 -0.00880472 0)
(0.984986 -0.00839351 0)
(0.984865 -0.00799928 0)
(0.984752 -0.00762191 0)
(1.00574 -0.000780323 0)
(1.00575 -0.00268784 0)
(1.00581 -0.00427832 0)
(1.00586 -0.00597453 0)
(1.00594 -0.0075773 0)
(1.00602 -0.0091521 0)
(1.0061 -0.010694 0)
(1.00618 -0.0122021 0)
(1.00625 -0.0136769 0)
(1.00631 -0.0151168 0)
(1.00635 -0.0165188 0)
(1.00637 -0.0178798 0)
(1.00636 -0.0191958 0)
(1.00631 -0.0204627 0)
(1.00623 -0.0216759 0)
(1.00611 -0.0228308 0)
(1.00595 -0.0239227 0)
(1.00574 -0.0249472 0)
(1.00548 -0.0259 0)
(1.00517 -0.0267771 0)
(1.00481 -0.0275751 0)
(1.00441 -0.0282909 0)
(1.00395 -0.028922 0)
(1.00345 -0.0294666 0)
(1.00291 -0.0299235 0)
(1.00232 -0.030292 0)
(1.00169 -0.0305724 0)
(1.00103 -0.0307655 0)
(1.00034 -0.0308727 0)
(0.999623 -0.0308961 0)
(0.998885 -0.0308385 0)
(0.998131 -0.0307031 0)
(0.997365 -0.0304937 0)
(0.996593 -0.0302143 0)
(0.995818 -0.0298696 0)
(0.995045 -0.0294643 0)
(0.994278 -0.0290034 0)
(0.99352 -0.0284919 0)
(0.992775 -0.0279351 0)
(0.992046 -0.0273382 0)
(0.991335 -0.0267063 0)
(0.990644 -0.0260445 0)
(0.989975 -0.0253578 0)
(0.989329 -0.0246511 0)
(0.988707 -0.0239286 0)
(0.988111 -0.0231946 0)
(0.987541 -0.0224527 0)
(0.986997 -0.0217064 0)
(0.986478 -0.0209588 0)
(0.985985 -0.0202128 0)
(0.985516 -0.0194709 0)
(0.985071 -0.0187357 0)
(0.98465 -0.0180094 0)
(0.984253 -0.0172941 0)
(0.98388 -0.0165916 0)
(0.98353 -0.0159035 0)
(0.983203 -0.0152312 0)
(0.982899 -0.0145757 0)
(0.982614 -0.013938 0)
(0.982349 -0.0133187 0)
(0.982101 -0.0127184 0)
(0.981869 -0.0121376 0)
(0.981653 -0.0115764 0)
(0.98145 -0.0110351 0)
(0.981261 -0.0105138 0)
(0.981084 -0.0100124 0)
(0.980919 -0.00953083 0)
(0.980766 -0.00906901 0)
(0.980623 -0.00862678 0)
(1.00684 -0.000853069 0)
(1.00686 -0.00292638 0)
(1.00693 -0.00465959 0)
(1.007 -0.00650945 0)
(1.00709 -0.00825733 0)
(1.00719 -0.0099788 0)
(1.00729 -0.0116662 0)
(1.00739 -0.0133195 0)
(1.00748 -0.0149397 0)
(1.00755 -0.0165248 0)
(1.0076 -0.0180722 0)
(1.00763 -0.0195784 0)
(1.00762 -0.0210394 0)
(1.00757 -0.0224507 0)
(1.00749 -0.0238073 0)
(1.00735 -0.0251043 0)
(1.00716 -0.0263365 0)
(1.00692 -0.027499 0)
(1.00662 -0.028587 0)
(1.00626 -0.0295958 0)
(1.00584 -0.0305215 0)
(1.00536 -0.0313602 0)
(1.00482 -0.0321089 0)
(1.00423 -0.032765 0)
(1.00358 -0.0333266 0)
(1.00288 -0.0337926 0)
(1.00213 -0.0341623 0)
(1.00134 -0.0344361 0)
(1.00051 -0.034615 0)
(0.999645 -0.0347004 0)
(0.998753 -0.0346949 0)
(0.997839 -0.0346014 0)
(0.996908 -0.0344234 0)
(0.995966 -0.0341651 0)
(0.995019 -0.033831 0)
(0.994072 -0.033426 0)
(0.993129 -0.0329554 0)
(0.992196 -0.0324246 0)
(0.991277 -0.0318393 0)
(0.990375 -0.0312052 0)
(0.989494 -0.0305279 0)
(0.988637 -0.0298129 0)
(0.987805 -0.0290657 0)
(0.987001 -0.0282913 0)
(0.986227 -0.0274948 0)
(0.985484 -0.0266811 0)
(0.984772 -0.0258547 0)
(0.984093 -0.0250202 0)
(0.983446 -0.0241818 0)
(0.982831 -0.0233433 0)
(0.982249 -0.0225081 0)
(0.9817 -0.0216793 0)
(0.981181 -0.0208597 0)
(0.980692 -0.0200514 0)
(0.98023 -0.0192565 0)
(0.979795 -0.0184767 0)
(0.979384 -0.0177136 0)
(0.978996 -0.0169684 0)
(0.978631 -0.0162424 0)
(0.978288 -0.0155364 0)
(0.977967 -0.0148512 0)
(0.977667 -0.0141873 0)
(0.977387 -0.0135453 0)
(0.977126 -0.0129254 0)
(0.976882 -0.0123278 0)
(0.976656 -0.0117525 0)
(0.976445 -0.0111994 0)
(0.976249 -0.0106686 0)
(0.976067 -0.0101599 0)
(1.00798 -0.00092122 0)
(1.00801 -0.0031486 0)
(1.00808 -0.00501576 0)
(1.00816 -0.00700991 0)
(1.00827 -0.00889452 0)
(1.00839 -0.0107554 0)
(1.00852 -0.012582 0)
(1.00864 -0.0143753 0)
(1.00875 -0.0161368 0)
(1.00884 -0.0178646 0)
(1.00891 -0.019556 0)
(1.00895 -0.0212076 0)
(1.00895 -0.0228153 0)
(1.0089 -0.0243743 0)
(1.00881 -0.0258794 0)
(1.00866 -0.0273253 0)
(1.00845 -0.0287064 0)
(1.00818 -0.0300173 0)
(1.00785 -0.0312526 0)
(1.00744 -0.0324072 0)
(1.00697 -0.0334762 0)
(1.00642 -0.0344554 0)
(1.00581 -0.0353409 0)
(1.00512 -0.0361293 0)
(1.00437 -0.036818 0)
(1.00356 -0.037405 0)
(1.00269 -0.0378891 0)
(1.00177 -0.0382696 0)
(1.00079 -0.0385468 0)
(0.99978 -0.0387217 0)
(0.998728 -0.0387961 0)
(0.997648 -0.0387724 0)
(0.996544 -0.0386538 0)
(0.995423 -0.038444 0)
(0.994293 -0.0381475 0)
(0.99316 -0.0377691 0)
(0.992029 -0.0373141 0)
(0.990907 -0.0367882 0)
(0.989798 -0.0361971 0)
(0.988707 -0.035547 0)
(0.987639 -0.034844 0)
(0.986597 -0.0340942 0)
(0.985584 -0.0333039 0)
(0.984604 -0.0324792 0)
(0.983657 -0.0316259 0)
(0.982747 -0.0307497 0)
(0.981873 -0.0298558 0)
(0.981037 -0.0289491 0)
(0.980239 -0.0280339 0)
(0.979479 -0.0271146 0)
(0.978756 -0.0261947 0)
(0.97807 -0.025278 0)
(0.977419 -0.0243677 0)
(0.976804 -0.023467 0)
(0.976224 -0.0225785 0)
(0.97568 -0.0217047 0)
(0.975169 -0.0208479 0)
(0.974691 -0.0200096 0)
(0.974245 -0.0191915 0)
(0.973827 -0.0183947 0)
(0.973437 -0.0176203 0)
(0.973071 -0.016869 0)
(0.97273 -0.0161416 0)
(0.972411 -0.0154385 0)
(0.972112 -0.01476 0)
(0.971834 -0.0141062 0)
(0.971575 -0.0134773 0)
(0.971333 -0.0128732 0)
(0.971108 -0.0122939 0)
(1.00913 -0.000985003 0)
(1.00917 -0.00335572 0)
(1.00926 -0.00534887 0)
(1.00935 -0.00747863 0)
(1.00948 -0.00949223 0)
(1.00963 -0.0114856 0)
(1.00977 -0.0134455 0)
(1.00992 -0.0153739 0)
(1.01005 -0.0172728 0)
(1.01017 -0.0191405 0)
(1.01026 -0.0209744 0)
(1.01031 -0.0227714 0)
(1.01033 -0.024527 0)
(1.01029 -0.0262364 0)
(1.0102 -0.0278942 0)
(1.01005 -0.0294948 0)
(1.00983 -0.0310323 0)
(1.00954 -0.0325008 0)
(1.00917 -0.0338943 0)
(1.00873 -0.0352072 0)
(1.0082 -0.0364341 0)
(1.0076 -0.0375699 0)
(1.00691 -0.0386101 0)
(1.00614 -0.0395504 0)
(1.0053 -0.0403875 0)
(1.00438 -0.0411184 0)
(1.00339 -0.0417409 0)
(1.00234 -0.0422536 0)
(1.00123 -0.0426559 0)
(1.00006 -0.0429478 0)
(0.998852 -0.0431303 0)
(0.997602 -0.0432051 0)
(0.99632 -0.0431747 0)
(0.995015 -0.0430423 0)
(0.993693 -0.0428119 0)
(0.992364 -0.042488 0)
(0.991033 -0.0420757 0)
(0.989707 -0.0415806 0)
(0.988394 -0.0410087 0)
(0.987099 -0.0403663 0)
(0.985827 -0.0396598 0)
(0.984583 -0.0388959 0)
(0.983371 -0.0380811 0)
(0.982195 -0.0372221 0)
(0.981058 -0.036325 0)
(0.979961 -0.0353961 0)
(0.978908 -0.0344414 0)
(0.977898 -0.0334669 0)
(0.976934 -0.0324782 0)
(0.976014 -0.0314807 0)
(0.975141 -0.0304792 0)
(0.974313 -0.0294783 0)
(0.973529 -0.0284819 0)
(0.972789 -0.0274936 0)
(0.972091 -0.0265164 0)
(0.971431 -0.0255532 0)
(0.970809 -0.0246062 0)
(0.970223 -0.0236778 0)
(0.969671 -0.0227698 0)
(0.969152 -0.0218838 0)
(0.968666 -0.0210213 0)
(0.968211 -0.0201833 0)
(0.967786 -0.0193707 0)
(0.967389 -0.0185842 0)
(0.967019 -0.0178242 0)
(0.966674 -0.0170911 0)
(0.966352 -0.0163851 0)
(0.966053 -0.0157062 0)
(0.965775 -0.0150546 0)
(1.0103 -0.00104469 0)
(1.01034 -0.00354866 0)
(1.01044 -0.00566007 0)
(1.01056 -0.00791709 0)
(1.01071 -0.0100522 0)
(1.01088 -0.0121715 0)
(1.01105 -0.0142585 0)
(1.01122 -0.0163169 0)
(1.01139 -0.018349 0)
(1.01153 -0.0203533 0)
(1.01165 -0.0223276 0)
(1.01173 -0.0242688 0)
(1.01176 -0.0261725 0)
(1.01174 -0.0280338 0)
(1.01166 -0.0298472 0)
(1.01151 -0.0316068 0)
(1.01129 -0.0333064 0)
(1.01098 -0.0349396 0)
(1.0106 -0.0365002 0)
(1.01012 -0.037982 0)
(1.00956 -0.039379 0)
(1.0089 -0.0406854 0)
(1.00815 -0.0418959 0)
(1.00731 -0.0430056 0)
(1.00638 -0.0440101 0)
(1.00536 -0.0449057 0)
(1.00426 -0.0456892 0)
(1.00309 -0.046358 0)
(1.00184 -0.0469107 0)
(1.00053 -0.0473461 0)
(0.999157 -0.0476642 0)
(0.997737 -0.0478658 0)
(0.996275 -0.0479525 0)
(0.994781 -0.0479266 0)
(0.993263 -0.0477914 0)
(0.991729 -0.0475509 0)
(0.990189 -0.0472097 0)
(0.988649 -0.0467731 0)
(0.987119 -0.046247 0)
(0.985604 -0.0456377 0)
(0.984113 -0.0449518 0)
(0.982649 -0.0441963 0)
(0.98122 -0.0433783 0)
(0.979829 -0.042505 0)
(0.97848 -0.0415836 0)
(0.977177 -0.0406213 0)
(0.975921 -0.0396249 0)
(0.974715 -0.0386011 0)
(0.97356 -0.0375558 0)
(0.972456 -0.0364947 0)
(0.971404 -0.0354234 0)
(0.970403 -0.0343466 0)
(0.969453 -0.0332692 0)
(0.968552 -0.0321957 0)
(0.9677 -0.0311301 0)
(0.966897 -0.0300762 0)
(0.966143 -0.0290372 0)
(0.965434 -0.028016 0)
(0.964771 -0.0270148 0)
(0.964149 -0.0260359 0)
(0.963567 -0.025081 0)
(0.963022 -0.0241515 0)
(0.962512 -0.0232487 0)
(0.962035 -0.0223735 0)
(0.961589 -0.0215267 0)
(0.961173 -0.0207089 0)
(0.960785 -0.0199204 0)
(0.960422 -0.0191615 0)
(0.960085 -0.0184324 0)
(1.01147 -0.00110047 0)
(1.01152 -0.00372796 0)
(1.01163 -0.00594983 0)
(1.01177 -0.00832583 0)
(1.01194 -0.0105751 0)
(1.01213 -0.0128133 0)
(1.01234 -0.0150213 0)
(1.01254 -0.017204 0)
(1.01274 -0.0193644 0)
(1.01292 -0.0215013 0)
(1.01306 -0.0236129 0)
(1.01317 -0.0256961 0)
(1.01323 -0.0277467 0)
(1.01324 -0.0297598 0)
(1.01317 -0.0317298 0)
(1.01303 -0.0336507 0)
(1.01282 -0.035516 0)
(1.01251 -0.037319 0)
(1.01211 -0.0390532 0)
(1.01162 -0.0407118 0)
(1.01102 -0.0422883 0)
(1.01032 -0.0437764 0)
(1.00952 -0.0451701 0)
(1.00862 -0.0464637 0)
(1.00761 -0.0476521 0)
(1.00651 -0.0487304 0)
(1.00531 -0.0496946 0)
(1.00402 -0.0505411 0)
(1.00264 -0.0512672 0)
(1.00119 -0.0518708 0)
(0.999662 -0.0523505 0)
(0.998076 -0.0527061 0)
(0.996436 -0.0529379 0)
(0.994753 -0.0530472 0)
(0.993036 -0.0530364 0)
(0.991294 -0.0529085 0)
(0.989537 -0.0526675 0)
(0.987775 -0.0523182 0)
(0.986017 -0.0518658 0)
(0.98427 -0.0513166 0)
(0.982544 -0.0506771 0)
(0.980845 -0.0499545 0)
(0.979181 -0.0491559 0)
(0.977556 -0.048289 0)
(0.975976 -0.0473612 0)
(0.974445 -0.0463802 0)
(0.972968 -0.0453535 0)
(0.971546 -0.0442884 0)
(0.970181 -0.0431923 0)
(0.968875 -0.0420722 0)
(0.96763 -0.0409348 0)
(0.966444 -0.0397866 0)
(0.965319 -0.0386332 0)
(0.964254 -0.0374797 0)
(0.963246 -0.0363309 0)
(0.962294 -0.0351909 0)
(0.961394 -0.0340633 0)
(0.960545 -0.0329517 0)
(0.959746 -0.031859 0)
(0.958993 -0.0307881 0)
(0.958287 -0.0297411 0)
(0.957625 -0.02872 0)
(0.957006 -0.0277265 0)
(0.956426 -0.0267618 0)
(0.955886 -0.025827 0)
(0.955381 -0.0249229 0)
(0.954911 -0.0240501 0)
(0.954472 -0.023209 0)
(0.954064 -0.0224001 0)
(1.01263 -0.00115242 0)
(1.01269 -0.0038938 0)
(1.01281 -0.00621823 0)
(1.01297 -0.00870487 0)
(1.01317 -0.0110607 0)
(1.01339 -0.0134107 0)
(1.01363 -0.0157329 0)
(1.01387 -0.0180338 0)
(1.01411 -0.0203169 0)
(1.01432 -0.0225815 0)
(1.0145 -0.0248261 0)
(1.01465 -0.0270478 0)
(1.01474 -0.0292428 0)
(1.01477 -0.031406 0)
(1.01473 -0.033532 0)
(1.01461 -0.0356144 0)
(1.01441 -0.0376468 0)
(1.01411 -0.0396222 0)
(1.01371 -0.0415338 0)
(1.0132 -0.0433743 0)
(1.01259 -0.045137 0)
(1.01186 -0.0468148 0)
(1.01102 -0.0484013 0)
(1.01006 -0.0498901 0)
(1.00899 -0.0512752 0)
(1.00781 -0.0525511 0)
(1.00652 -0.0537126 0)
(1.00513 -0.0547553 0)
(1.00364 -0.0556751 0)
(1.00205 -0.0564689 0)
(1.00038 -0.057134 0)
(0.998636 -0.0576688 0)
(0.996824 -0.0580724 0)
(0.994955 -0.0583448 0)
(0.99304 -0.0584871 0)
(0.991089 -0.0585012 0)
(0.989113 -0.05839 0)
(0.987123 -0.0581573 0)
(0.985128 -0.057808 0)
(0.983139 -0.0573475 0)
(0.981166 -0.0567821 0)
(0.979217 -0.0561186 0)
(0.977301 -0.0553646 0)
(0.975424 -0.0545278 0)
(0.973594 -0.0536164 0)
(0.971815 -0.0526387 0)
(0.970092 -0.0516032 0)
(0.96843 -0.050518 0)
(0.966831 -0.0493911 0)
(0.965297 -0.0482302 0)
(0.963829 -0.0470424 0)
(0.962428 -0.0458345 0)
(0.961094 -0.0446131 0)
(0.959826 -0.0433844 0)
(0.958623 -0.0421543 0)
(0.957486 -0.0409282 0)
(0.956413 -0.0397111 0)
(0.955404 -0.0385073 0)
(0.954456 -0.0373205 0)
(0.953566 -0.0361541 0)
(0.952731 -0.0350108 0)
(0.951949 -0.0338932 0)
(0.951216 -0.0328035 0)
(0.95053 -0.0317433 0)
(0.949889 -0.0307142 0)
(0.949289 -0.0297174 0)
(0.948729 -0.0287537 0)
(0.948207 -0.0278239 0)
(0.947719 -0.0269286 0)
(1.01378 -0.00120045 0)
(1.01385 -0.00404612 0)
(1.01399 -0.00646517 0)
(1.01417 -0.00905401 0)
(1.0144 -0.0115086 0)
(1.01465 -0.0139629 0)
(1.01492 -0.0163921 0)
(1.0152 -0.0188046 0)
(1.01547 -0.0212042 0)
(1.01573 -0.0235906 0)
(1.01595 -0.025963 0)
(1.01614 -0.0283187 0)
(1.01627 -0.0306539 0)
(1.01633 -0.032964 0)
(1.01633 -0.0352433 0)
(1.01623 -0.0374857 0)
(1.01605 -0.0396844 0)
(1.01577 -0.0418325 0)
(1.01538 -0.0439226 0)
(1.01487 -0.0459476 0)
(1.01425 -0.0478999 0)
(1.0135 -0.0497725 0)
(1.01264 -0.0515581 0)
(1.01164 -0.05325 0)
(1.01052 -0.0548414 0)
(1.00928 -0.0563261 0)
(1.00791 -0.0576982 0)
(1.00643 -0.0589521 0)
(1.00483 -0.0600828 0)
(1.00313 -0.0610858 0)
(1.00132 -0.0619574 0)
(0.999431 -0.0626944 0)
(0.997455 -0.0632946 0)
(0.995408 -0.0637565 0)
(0.9933 -0.0640797 0)
(0.991142 -0.0642647 0)
(0.988947 -0.064313 0)
(0.986726 -0.0642274 0)
(0.98449 -0.0640114 0)
(0.982251 -0.0636698 0)
(0.980021 -0.0632079 0)
(0.977809 -0.0626324 0)
(0.975626 -0.0619503 0)
(0.97348 -0.0611693 0)
(0.97138 -0.0602978 0)
(0.969333 -0.0593441 0)
(0.967345 -0.058317 0)
(0.965421 -0.0572253 0)
(0.963565 -0.056078 0)
(0.961781 -0.0548839 0)
(0.960071 -0.0536519 0)
(0.958437 -0.0523903 0)
(0.95688 -0.0511072 0)
(0.955401 -0.0498098 0)
(0.953998 -0.0485048 0)
(0.952669 -0.0471983 0)
(0.951411 -0.0458957 0)
(0.950223 -0.0446022 0)
(0.949101 -0.0433225 0)
(0.948044 -0.0420609 0)
(0.94705 -0.0408209 0)
(0.946117 -0.039606 0)
(0.945243 -0.0384187 0)
(0.944424 -0.0372614 0)
(0.943659 -0.036136 0)
(0.942944 -0.035044 0)
(0.942277 -0.0339868 0)
(0.941654 -0.0329653 0)
(0.941074 -0.0319804 0)
(1.01491 -0.00124448 0)
(1.01499 -0.00418484 0)
(1.01515 -0.00669054 0)
(1.01535 -0.00937305 0)
(1.01561 -0.0119183 0)
(1.01589 -0.0144692 0)
(1.01621 -0.016998 0)
(1.01652 -0.0195148 0)
(1.01684 -0.0220239 0)
(1.01714 -0.0245257 0)
(1.01741 -0.0270196 0)
(1.01764 -0.0295035 0)
(1.01781 -0.0319739 0)
(1.01792 -0.0344261 0)
(1.01795 -0.0368548 0)
(1.01789 -0.0392537 0)
(1.01774 -0.041616 0)
(1.01748 -0.0439348 0)
(1.01711 -0.0462025 0)
(1.01661 -0.0484116 0)
(1.016 -0.0505546 0)
(1.01525 -0.0526238 0)
(1.01436 -0.0546119 0)
(1.01334 -0.0565114 0)
(1.01219 -0.0583154 0)
(1.01089 -0.0600168 0)
(1.00947 -0.061609 0)
(1.00791 -0.0630857 0)
(1.00622 -0.064441 0)
(1.00442 -0.0656692 0)
(1.00249 -0.0667653 0)
(1.00047 -0.0677249 0)
(0.998338 -0.0685441 0)
(0.996123 -0.0692201 0)
(0.993831 -0.0697507 0)
(0.991473 -0.0701347 0)
(0.989063 -0.0703722 0)
(0.986612 -0.0704642 0)
(0.984134 -0.0704128 0)
(0.981641 -0.0702215 0)
(0.979147 -0.0698947 0)
(0.976662 -0.069438 0)
(0.974199 -0.0688579 0)
(0.971769 -0.0681618 0)
(0.969382 -0.0673579 0)
(0.967046 -0.066455 0)
(0.964769 -0.0654625 0)
(0.962559 -0.06439 0)
(0.960421 -0.0632471 0)
(0.958359 -0.0620434 0)
(0.956378 -0.0607881 0)
(0.954479 -0.05949 0)
(0.952664 -0.058158 0)
(0.950932 -0.0568003 0)
(0.949284 -0.0554252 0)
(0.94772 -0.0540403 0)
(0.946241 -0.0526528 0)
(0.944844 -0.0512693 0)
(0.94353 -0.0498952 0)
(0.942294 -0.0485358 0)
(0.941132 -0.0471955 0)
(0.940042 -0.0458782 0)
(0.93902 -0.0445875 0)
(0.938062 -0.0433263 0)
(0.937166 -0.0420973 0)
(0.936327 -0.0409026 0)
(0.935543 -0.0397439 0)
(0.934811 -0.0386227 0)
(0.934129 -0.0375403 0)
(1.01602 -0.0012845 0)
(1.01611 -0.00431003 0)
(1.01628 -0.00689442 0)
(1.01651 -0.00966204 0)
(1.0168 -0.01229 0)
(1.01712 -0.0149294 0)
(1.01747 -0.01755 0)
(1.01783 -0.0201635 0)
(1.01819 -0.0227747 0)
(1.01854 -0.0253847 0)
(1.01886 -0.0279934 0)
(1.01914 -0.0305989 0)
(1.01936 -0.0331981 0)
(1.01951 -0.0357867 0)
(1.01959 -0.0383593 0)
(1.01957 -0.0409097 0)
(1.01946 -0.0434314 0)
(1.01923 -0.045917 0)
(1.01889 -0.0483592 0)
(1.01842 -0.0507501 0)
(1.01781 -0.0530822 0)
(1.01707 -0.0553475 0)
(1.01618 -0.0575384 0)
(1.01515 -0.0596473 0)
(1.01398 -0.0616667 0)
(1.01265 -0.0635893 0)
(1.01118 -0.0654079 0)
(1.00956 -0.0671156 0)
(1.0078 -0.0687056 0)
(1.00591 -0.0701713 0)
(1.00389 -0.0715068 0)
(1.00174 -0.0727062 0)
(0.999474 -0.0737643 0)
(0.997105 -0.0746765 0)
(0.994642 -0.0754391 0)
(0.992095 -0.076049 0)
(0.989478 -0.0765044 0)
(0.986804 -0.0768044 0)
(0.984086 -0.0769495 0)
(0.981339 -0.0769413 0)
(0.978577 -0.0767828 0)
(0.975813 -0.0764781 0)
(0.973061 -0.0760328 0)
(0.970333 -0.0754534 0)
(0.967642 -0.0747474 0)
(0.964999 -0.0739235 0)
(0.962414 -0.0729905 0)
(0.959896 -0.0719583 0)
(0.957452 -0.070837 0)
(0.955088 -0.0696369 0)
(0.952811 -0.068369 0)
(0.950624 -0.0670438 0)
(0.94853 -0.0656719 0)
(0.946532 -0.0642632 0)
(0.944631 -0.062827 0)
(0.942825 -0.0613718 0)
(0.941112 -0.0599055 0)
(0.93949 -0.0584354 0)
(0.937956 -0.0569686 0)
(0.936508 -0.0555114 0)
(0.935143 -0.0540697 0)
(0.933861 -0.0526484 0)
(0.932657 -0.051252 0)
(0.931529 -0.0498843 0)
(0.930473 -0.0485486 0)
(0.929486 -0.0472475 0)
(0.928565 -0.0459834 0)
(0.927704 -0.0447583 0)
(0.926902 -0.0435737 0)
(1.01711 -0.00132059 0)
(1.0172 -0.004422 0)
(1.01739 -0.00707721 0)
(1.01764 -0.00992149 0)
(1.01796 -0.0126241 0)