/*--------------------------------*- C++ -*----------------------------------*\
  =========                 |
  \\      /  F ield         | OpenFOAM: The Open Source CFD Toolbox
   \\    /   O peration     | Website:  https://openfoam.org
    \\  /    A nd           | Version:  10
     \\/     M anipulation  |
\*---------------------------------------------------------------------------*/
FoamFile
{
    format      ascii;
    class       volVectorField;
    location    "440";
    object      U;
}
// * * * * * * * * * * * * * * * * * * * * * * * * * * * * * * * * * * * * * //

dimensions      [0 1 -1 0 0 0 0];

internalField   nonuniform List<vector> 
66268
(
(0.999999 -3.82402e-05 0)
(0.999999 -0.000139722 0)
(0.999999 -0.000222231 0)
(0.999999 -0.000308609 0)
(1 -0.000392589 0)
(1 -0.000474594 0)
(1 -0.000555185 0)
(1 -0.000634381 0)
(1 -0.000712065 0)
(1 -0.000788093 0)
(1 -0.000862264 0)
(1 -0.000934322 0)
(1 -0.00100397 0)
(1 -0.00107088 0)
(1 -0.0011347 0)
(1 -0.0011951 0)
(1 -0.00125172 0)
(1 -0.00130423 0)
(1 -0.00135234 0)
(1 -0.00139577 0)
(1 -0.00143431 0)
(1 -0.00146777 0)
(1 -0.00149603 0)
(1 -0.00151903 0)
(1 -0.00153674 0)
(1 -0.00154921 0)
(1 -0.00155653 0)
(1 -0.00155884 0)
(1 -0.0015563 0)
(1 -0.00154915 0)
(1 -0.00153764 0)
(1 -0.00152205 0)
(1 -0.00150268 0)
(1 -0.00147986 0)
(1 -0.00145393 0)
(1 -0.00142523 0)
(1 -0.00139413 0)
(1 -0.00136095 0)
(1 -0.00132601 0)
(1 -0.00128957 0)
(1 -0.00125188 0)
(1 -0.00121312 0)
(1 -0.00117346 0)
(1 -0.00113303 0)
(1 -0.00109198 0)
(1 -0.00105043 0)
(0.999997 -0.00100855 0)
(0.999993 -0.00096654 0)
(0.999986 -0.000924636 0)
(0.999976 -0.000883111 0)
(0.999963 -0.000842246 0)
(0.999949 -0.000802287 0)
(0.999936 -0.000763397 0)
(0.999925 -0.000725647 0)
(0.999918 -0.000689024 0)
(0.999916 -0.000653479 0)
(0.999918 -0.000618959 0)
(0.999922 -0.000585438 0)
(0.999929 -0.00055292 0)
(0.999937 -0.000521431 0)
(0.999945 -0.000491009 0)
(0.999953 -0.000461692 0)
(0.999959 -0.000433507 0)
(0.999965 -0.00040647 0)
(0.99997 -0.000380587 0)
(0.999974 -0.000355846 0)
(0.999977 -0.00033223 0)
(0.999979 -0.000309748 0)
(0.999981 -0.000288408 0)
(1.00017 -0.000119332 0)
(1.00016 -0.000429432 0)
(1.00017 -0.000680958 0)
(1.00017 -0.000946887 0)
(1.00017 -0.00120419 0)
(1.00017 -0.00145501 0)
(1.00018 -0.00170142 0)
(1.00018 -0.00194325 0)
(1.00018 -0.00218012 0)
(1.00019 -0.00241163 0)
(1.00019 -0.00263718 0)
(1.00019 -0.002856 0)
(1.00019 -0.00306719 0)
(1.00019 -0.00326981 0)
(1.00018 -0.00346282 0)
(1.00018 -0.00364521 0)
(1.00017 -0.00381596 0)
(1.00017 -0.00397412 0)
(1.00016 -0.00411882 0)
(1.00015 -0.00424927 0)
(1.00013 -0.00436484 0)
(1.00012 -0.00446503 0)
(1.0001 -0.00454951 0)
(1.00008 -0.00461809 0)
(1.00006 -0.00467076 0)
(1.00004 -0.00470765 0)
(1.00002 -0.00472907 0)
(0.999996 -0.00473545 0)
(0.999971 -0.00472736 0)
(0.999946 -0.00470549 0)
(0.99992 -0.00467062 0)
(0.999894 -0.00462361 0)
(0.999867 -0.00456536 0)
(0.999841 -0.00449682 0)
(0.999814 -0.0044189 0)
(0.999788 -0.00433252 0)
(0.999762 -0.00423855 0)
(0.999737 -0.00413786 0)
(0.999712 -0.00403129 0)
(0.999687 -0.00391973 0)
(0.999663 -0.00380404 0)
(0.999639 -0.00368515 0)
(0.999616 -0.00356396 0)
(0.999593 -0.00344134 0)
(0.999571 -0.00331812 0)
(0.999551 -0.00319502 0)
(0.999532 -0.00307261 0)
(0.999516 -0.00295134 0)
(0.999504 -0.00283149 0)
(0.999497 -0.00271322 0)
(0.999494 -0.00259658 0)
(0.999494 -0.00248164 0)
(0.999495 -0.00236853 0)
(0.999494 -0.00225749 0)
(0.999489 -0.00214884 0)
(0.999478 -0.0020429 0)
(0.999464 -0.00193995 0)
(0.999446 -0.00184017 0)
(0.999427 -0.00174365 0)
(0.999407 -0.0016504 0)
(0.999388 -0.00156041 0)
(0.999371 -0.00147361 0)
(0.999356 -0.00138996 0)
(0.999342 -0.00130939 0)
(0.99933 -0.00123187 0)
(0.99932 -0.00115734 0)
(0.999311 -0.00108576 0)
(0.999303 -0.00101711 0)
(0.999296 -0.000951423 0)
(1.00052 -0.000203343 0)
(1.00052 -0.000721516 0)
(1.00053 -0.00114182 0)
(1.00053 -0.00159098 0)
(1.00054 -0.00202351 0)
(1.00055 -0.00244549 0)
(1.00056 -0.00286079 0)
(1.00057 -0.00326873 0)
(1.00058 -0.00366886 0)
(1.00058 -0.00406061 0)
(1.00059 -0.00444299 0)
(1.00059 -0.00481477 0)
(1.00059 -0.00517452 0)
(1.00058 -0.00552065 0)
(1.00058 -0.00585151 0)
(1.00056 -0.00616538 0)
(1.00054 -0.00646057 0)
(1.00052 -0.00673546 0)
(1.00049 -0.00698858 0)
(1.00046 -0.00721858 0)
(1.00042 -0.00742435 0)
(1.00037 -0.00760498 0)
(1.00032 -0.00775983 0)
(1.00027 -0.00788852 0)
(1.00021 -0.00799094 0)
(1.00015 -0.00806723 0)
(1.00008 -0.00811781 0)
(1.00001 -0.00814331 0)
(0.999935 -0.00814459 0)
(0.99986 -0.00812269 0)
(0.999784 -0.00807883 0)
(0.999707 -0.00801432 0)
(0.99963 -0.0079306 0)
(0.999552 -0.00782919 0)
(0.999475 -0.00771165 0)
(0.999399 -0.00757961 0)
(0.999325 -0.00743473 0)
(0.999252 -0.00727866 0)
(0.99918 -0.00711304 0)
(0.999111 -0.00693942 0)
(0.999044 -0.00675921 0)
(0.99898 -0.0065737 0)
(0.998917 -0.00638398 0)
(0.998858 -0.00619102 0)
(0.998801 -0.00599565 0)
(0.998746 -0.00579867 0)
(0.998693 -0.00560081 0)
(0.99864 -0.00540284 0)
(0.998587 -0.00520554 0)
(0.998532 -0.00500974 0)
(0.998476 -0.00481628 0)
(0.99842 -0.00462587 0)
(0.998368 -0.00443909 0)
(0.998322 -0.00425631 0)
(0.998283 -0.00407775 0)
(0.998253 -0.00390352 0)
(0.998231 -0.00373372 0)
(0.998214 -0.00356848 0)
(0.998202 -0.00340796 0)
(0.998192 -0.00325234 0)
(0.998184 -0.00310179 0)
(0.998176 -0.00295644 0)
(0.998167 -0.00281638 0)
(0.998159 -0.00268166 0)
(0.99815 -0.00255227 0)
(0.998141 -0.0024282 0)
(0.998133 -0.00230938 0)
(0.998124 -0.00219577 0)
(0.998116 -0.00208732 0)
(1.00102 -0.000286923 0)
(1.00102 -0.00100865 0)
(1.00104 -0.00159691 0)
(1.00105 -0.00222914 0)
(1.00106 -0.00283568 0)
(1.00108 -0.00342922 0)
(1.0011 -0.00401472 0)
(1.00112 -0.00459103 0)
(1.00114 -0.00515787 0)
(1.00115 -0.00571457 0)
(1.00116 -0.00625988 0)
(1.00117 -0.00679216 0)
(1.00117 -0.00730948 0)
(1.00116 -0.0078097 0)
(1.00115 -0.00829048 0)
(1.00113 -0.00874944 0)
(1.00109 -0.00918415 0)
(1.00105 -0.0095923 0)
(1.001 -0.00997166 0)
(1.00094 -0.0103202 0)
(1.00086 -0.0106363 0)
(1.00078 -0.0109184 0)
(1.00068 -0.0111653 0)
(1.00058 -0.0113764 0)
(1.00047 -0.0115513 0)
(1.00035 -0.0116899 0)
(1.00022 -0.0117924 0)
(1.00009 -0.0118597 0)
(0.999951 -0.0118927 0)
(0.999809 -0.0118926 0)
(0.999664 -0.0118609 0)
(0.999517 -0.0117994 0)
(0.99937 -0.01171 0)
(0.999222 -0.0115947 0)
(0.999075 -0.0114556 0)
(0.99893 -0.0112949 0)
(0.998787 -0.0111146 0)
(0.998648 -0.0109168 0)
(0.998512 -0.0107036 0)
(0.99838 -0.0104768 0)
(0.998252 -0.0102383 0)
(0.99813 -0.00999007 0)
(0.998012 -0.00973386 0)
(0.997899 -0.00947158 0)
(0.997792 -0.00920501 0)
(0.99769 -0.00893589 0)
(0.997594 -0.00866575 0)
(0.997505 -0.00839596 0)
(0.997425 -0.00812763 0)
(0.997355 -0.00786164 0)
(0.997294 -0.00759861 0)
(0.99724 -0.00733908 0)
(0.997189 -0.00708358 0)
(0.997139 -0.00683268 0)
(0.997086 -0.00658704 0)
(0.99703 -0.00634726 0)
(0.996971 -0.00611386 0)
(0.996911 -0.00588721 0)
(0.996852 -0.00566752 0)
(0.996796 -0.00545491 0)
(0.996743 -0.0052494 0)
(0.996694 -0.00505098 0)
(0.99665 -0.00485963 0)
(0.99661 -0.0046753 0)
(0.996574 -0.00449794 0)
(0.996541 -0.0043275 0)
(0.996512 -0.00416389 0)
(0.996485 -0.00400707 0)
(0.99646 -0.00385701 0)
(1.00162 -0.000367174 0)
(1.00162 -0.00128451 0)
(1.00165 -0.00203824 0)
(1.00167 -0.00284889 0)
(1.00169 -0.00362483 0)
(1.00172 -0.00438739 0)
(1.00176 -0.00514136 0)
(1.00179 -0.0058854 0)
(1.00182 -0.00661968 0)
(1.00185 -0.00734354 0)
(1.00187 -0.00805553 0)
(1.00188 -0.00875371 0)
(1.00189 -0.00943575 0)
(1.00188 -0.0100989 0)
(1.00187 -0.0107404 0)
(1.00184 -0.0113569 0)
(1.00179 -0.0119455 0)
(1.00173 -0.0125028 0)
(1.00165 -0.013026 0)
(1.00156 -0.0135122 0)
(1.00145 -0.013959 0)
(1.00132 -0.0143641 0)
(1.00118 -0.0147257 0)
(1.00102 -0.0150426 0)
(1.00085 -0.0153137 0)
(1.00066 -0.0155388 0)
(1.00047 -0.0157178 0)
(1.00026 -0.0158513 0)
(1.00004 -0.0159401 0)
(0.999819 -0.0159856 0)
(0.99959 -0.0159895 0)
(0.999358 -0.0159537 0)
(0.999123 -0.0158804 0)
(0.998888 -0.0157721 0)
(0.998654 -0.0156312 0)
(0.998422 -0.0154604 0)
(0.998193 -0.0152625 0)
(0.997968 -0.0150402 0)
(0.997749 -0.0147963 0)
(0.997535 -0.0145337 0)
(0.997328 -0.0142551 0)
(0.997128 -0.013963 0)
(0.996936 -0.0136598 0)
(0.996751 -0.0133478 0)
(0.996573 -0.0130287 0)
(0.996404 -0.0127044 0)
(0.99624 -0.0123764 0)
(0.996083 -0.0120463 0)
(0.99593 -0.0117155 0)
(0.995779 -0.0113855 0)
(0.995631 -0.0110578 0)
(0.995487 -0.0107338 0)
(0.99535 -0.0104144 0)
(0.995225 -0.0101006 0)
(0.995114 -0.00979291 0)
(0.995017 -0.00949165 0)
(0.994933 -0.00919714 0)
(0.99486 -0.00890973 0)
(0.994795 -0.00862978 0)
(0.994735 -0.00835765 0)
(0.99468 -0.00809368 0)
(0.994627 -0.00783815 0)
(0.994577 -0.00759126 0)
(0.99453 -0.00735314 0)
(0.994484 -0.00712386 0)
(0.994441 -0.00690343 0)
(0.994401 -0.00669181 0)
(0.994362 -0.00648896 0)
(0.994327 -0.00629484 0)
(1.00229 -0.000443284 0)
(1.0023 -0.00154607 0)
(1.00234 -0.00245956 0)
(1.00237 -0.00344094 0)
(1.00241 -0.00437936 0)
(1.00246 -0.0053057 0)
(1.0025 -0.00622359 0)
(1.00256 -0.00713195 0)
(1.0026 -0.00803156 0)
(1.00265 -0.00892184 0)
(1.00269 -0.00980125 0)
(1.00272 -0.0106677 0)
(1.00273 -0.0115185 0)
(1.00274 -0.0123505 0)
(1.00272 -0.0131601 0)
(1.00269 -0.0139438 0)
(1.00264 -0.0146974 0)
(1.00256 -0.0154171 0)
(1.00246 -0.0160989 0)
(1.00234 -0.0167393 0)
(1.00219 -0.0173347 0)
(1.00202 -0.0178822 0)
(1.00183 -0.0183791 0)
(1.00161 -0.0188233 0)
(1.00138 -0.0192132 0)
(1.00112 -0.0195478 0)
(1.00084 -0.0198266 0)
(1.00055 -0.0200498 0)
(1.00025 -0.020218 0)
(0.99993 -0.0203324 0)
(0.999605 -0.0203945 0)
(0.999272 -0.0204064 0)
(0.998935 -0.0203705 0)
(0.998596 -0.0202894 0)
(0.998257 -0.0201661 0)
(0.99792 -0.0200036 0)
(0.997586 -0.0198052 0)
(0.997257 -0.0195741 0)
(0.996935 -0.0193136 0)
(0.99662 -0.0190269 0)
(0.996314 -0.0187169 0)
(0.996017 -0.0183868 0)
(0.995731 -0.0180395 0)
(0.995455 -0.0176778 0)
(0.995191 -0.0173048 0)
(0.994938 -0.0169231 0)
(0.994698 -0.0165355 0)
(0.994473 -0.0161444 0)
(0.994263 -0.0157518 0)
(0.99407 -0.0153597 0)
(0.993894 -0.0149693 0)
(0.993733 -0.014582 0)
(0.993582 -0.0141986 0)
(0.993436 -0.0138203 0)
(0.993292 -0.0134481 0)
(0.993147 -0.0130832 0)
(0.993003 -0.0127265 0)
(0.992863 -0.0123786 0)
(0.992728 -0.0120401 0)
(0.992601 -0.0117113 0)
(0.992482 -0.0113924 0)
(0.992373 -0.0110835 0)
(0.992272 -0.0107849 0)
(0.99218 -0.0104965 0)
(0.992096 -0.0102185 0)
(0.992018 -0.00995072 0)
(0.991946 -0.00969324 0)
(0.991881 -0.00944604 0)
(0.99182 -0.0092091 0)
(1.00304 -0.000515398 0)
(1.00306 -0.0017919 0)
(1.0031 -0.00285606 0)
(1.00315 -0.00399848 0)
(1.00321 -0.00509077 0)
(1.00327 -0.00617339 0)
(1.00335 -0.00724833 0)
(1.00342 -0.00831516 0)
(1.0035 -0.00937538 0)
(1.00357 -0.0104286 0)
(1.00363 -0.0114732 0)
(1.00368 -0.0125071 0)
(1.00371 -0.0135275 0)
(1.00373 -0.0145308 0)
(1.00373 -0.015513 0)
(1.0037 -0.0164697 0)
(1.00365 -0.0173963 0)
(1.00357 -0.018288 0)
(1.00345 -0.0191401 0)
(1.00331 -0.0199479 0)
(1.00313 -0.020707 0)
(1.00292 -0.0214135 0)
(1.00267 -0.0220636 0)
(1.0024 -0.0226544 0)
(1.00209 -0.0231834 0)
(1.00176 -0.0236486 0)
(1.0014 -0.024049 0)
(1.00102 -0.0243841 0)
(1.00062 -0.024654 0)
(1.00019 -0.0248594 0)
(0.999759 -0.0250017 0)
(0.999313 -0.025083 0)
(0.998858 -0.0251056 0)
(0.998399 -0.0250723 0)
(0.997937 -0.0249863 0)
(0.997476 -0.0248511 0)
(0.997018 -0.0246703 0)
(0.996565 -0.0244477 0)
(0.99612 -0.0241871 0)
(0.995684 -0.0238927 0)
(0.99526 -0.0235682 0)
(0.994847 -0.0232175 0)
(0.994448 -0.0228445 0)
(0.994064 -0.0224525 0)
(0.993694 -0.0220446 0)
(0.99334 -0.0216237 0)
(0.993 -0.0211925 0)
(0.992674 -0.0207532 0)
(0.992361 -0.0203083 0)
(0.992057 -0.0198599 0)
(0.991763 -0.0194104 0)
(0.99148 -0.018962 0)
(0.991211 -0.0185167 0)
(0.99096 -0.0180763 0)
(0.990732 -0.0176419 0)
(0.990526 -0.0172146 0)
(0.990341 -0.0167951 0)
(0.990173 -0.0163843 0)
(0.990019 -0.0159828 0)
(0.989875 -0.0155914 0)
(0.98974 -0.0152107 0)
(0.989612 -0.0148411 0)
(0.989492 -0.0144832 0)
(0.989377 -0.0141372 0)
(0.98927 -0.0138033 0)
(0.989168 -0.0134816 0)
(0.989073 -0.0131721 0)
(0.988984 -0.0128748 0)
(0.9889 -0.0125898 0)
(1.00386 -0.000583376 0)
(1.00388 -0.00202046 0)
(1.00394 -0.00322391 0)
(1.004 -0.0045162 0)
(1.00408 -0.0057522 0)
(1.00418 -0.00698165 0)
(1.00428 -0.00820473 0)
(1.00438 -0.00942204 0)
(1.00449 -0.0106358 0)
(1.00459 -0.0118458 0)
(1.00468 -0.0130507 0)
(1.00477 -0.0142485 0)
(1.00483 -0.0154362 0)
(1.00487 -0.0166101 0)
(1.00489 -0.0177657 0)
(1.00488 -0.0188982 0)
(1.00483 -0.0200022 0)
(1.00475 -0.0210723 0)
(1.00463 -0.0221029 0)
(1.00447 -0.0230883 0)
(1.00426 -0.0240231 0)
(1.00401 -0.0249022 0)
(1.00372 -0.0257209 0)
(1.00339 -0.0264751 0)
(1.00302 -0.0271612 0)
(1.00261 -0.0277763 0)
(1.00216 -0.0283184 0)
(1.00168 -0.028786 0)
(1.00117 -0.0291786 0)
(1.00064 -0.0294965 0)
(1.00008 -0.0297404 0)
(0.999512 -0.029912 0)
(0.998927 -0.0300135 0)
(0.998332 -0.0300477 0)
(0.997732 -0.0300176 0)
(0.997131 -0.029927 0)
(0.996532 -0.0297796 0)
(0.995939 -0.0295796 0)
(0.995354 -0.0293312 0)
(0.99478 -0.0290387 0)
(0.994218 -0.0287063 0)
(0.993672 -0.0283383 0)
(0.993143 -0.0279389 0)
(0.992631 -0.0275121 0)
(0.992138 -0.0270621 0)
(0.991665 -0.0265931 0)
(0.991213 -0.0261092 0)
(0.990783 -0.0256141 0)
(0.990378 -0.0251114 0)
(0.989999 -0.0246043 0)
(0.989646 -0.0240952 0)
(0.989319 -0.0235862 0)
(0.989011 -0.0230792 0)
(0.988716 -0.0225758 0)
(0.988429 -0.0220776 0)
(0.988149 -0.0215864 0)
(0.987876 -0.0211037 0)
(0.987612 -0.0206307 0)
(0.987362 -0.0201684 0)
(0.987125 -0.0197175 0)
(0.986905 -0.0192786 0)
(0.986701 -0.0188522 0)
(0.986512 -0.0184387 0)
(0.986336 -0.0180382 0)
(0.986174 -0.0176511 0)
(0.986024 -0.0172774 0)
(0.985885 -0.0169174 0)
(0.985756 -0.0165711 0)
(0.985637 -0.0162385 0)
(1.00474 -0.000646639 0)
(1.00476 -0.00223015 0)
(1.00483 -0.00356058 0)
(1.00491 -0.00499048 0)
(1.00502 -0.00635874 0)
(1.00514 -0.00772408 0)
(1.00528 -0.00908485 0)
(1.00542 -0.0104429 0)
(1.00556 -0.011801 0)
(1.0057 -0.0131595 0)
(1.00584 -0.0145174 0)
(1.00596 -0.0158728 0)
(1.00606 -0.0172228 0)
(1.00613 -0.0185635 0)
(1.00618 -0.0198903 0)
(1.00619 -0.0211979 0)
(1.00616 -0.0224806 0)
(1.00609 -0.0237321 0)
(1.00597 -0.024946 0)
(1.0058 -0.0261157 0)
(1.00557 -0.0272349 0)
(1.0053 -0.0282972 0)
(1.00497 -0.0292969 0)
(1.00458 -0.0302285 0)
(1.00414 -0.0310872 0)
(1.00366 -0.0318691 0)
(1.00312 -0.0325709 0)
(1.00255 -0.0331901 0)
(1.00193 -0.0337252 0)
(1.00128 -0.0341754 0)
(1.0006 -0.034541 0)
(0.999889 -0.034823 0)
(0.999163 -0.035023 0)
(0.998421 -0.0351435 0)
(0.997671 -0.0351878 0)
(0.996916 -0.0351593 0)
(0.99616 -0.0350623 0)
(0.995409 -0.0349012 0)
(0.994665 -0.0346809 0)
(0.993932 -0.0344063 0)
(0.993214 -0.0340826 0)
(0.992513 -0.0337152 0)
(0.99183 -0.0333091 0)
(0.991169 -0.0328694 0)
(0.990531 -0.0324008 0)
(0.989916 -0.0319075 0)
(0.989326 -0.0313934 0)
(0.98876 -0.030862 0)
(0.988216 -0.0303166 0)
(0.987692 -0.0297603 0)
(0.987187 -0.0291963 0)
(0.986702 -0.028628 0)
(0.986239 -0.0280584 0)
(0.985805 -0.0274905 0)
(0.985403 -0.0269266 0)
(0.985034 -0.0263686 0)
(0.984697 -0.025818 0)
(0.984386 -0.0252764 0)
(0.984097 -0.0247449 0)
(0.983826 -0.0242248 0)
(0.983572 -0.0237172 0)
(0.983331 -0.0232229 0)
(0.983104 -0.0227428 0)
(0.982889 -0.0222774 0)
(0.982687 -0.0218272 0)
(0.982497 -0.0213923 0)
(0.982319 -0.0209731 0)
(0.982153 -0.0205697 0)
(0.981997 -0.0201821 0)
(1.00565 -0.00070456 0)
(1.00568 -0.00241993 0)
(1.00577 -0.0038651 0)
(1.00587 -0.00541984 0)
(1.006 -0.00690817 0)
(1.00616 -0.00839762 0)
(1.00633 -0.0098846 0)
(1.00651 -0.0113723 0)
(1.0067 -0.0128643 0)
(1.00689 -0.0143613 0)
(1.00706 -0.0158629 0)
(1.00723 -0.0173674 0)
(1.00737 -0.0188721 0)
(1.00749 -0.0203733 0)
(1.00757 -0.0218663 0)
(1.00762 -0.0233455 0)
(1.00761 -0.0248047 0)
(1.00756 -0.0262372 0)
(1.00745 -0.0276359 0)
(1.00728 -0.0289934 0)
(1.00705 -0.0303022 0)
(1.00675 -0.0315551 0)
(1.00639 -0.0327449 0)
(1.00596 -0.0338651 0)
(1.00547 -0.0349094 0)
(1.00491 -0.0358726 0)
(1.00429 -0.03675 0)
(1.00362 -0.037538 0)
(1.00289 -0.0382337 0)
(1.00212 -0.0388353 0)
(1.00131 -0.0393421 0)
(1.00046 -0.0397542 0)
(0.999589 -0.0400727 0)
(0.998692 -0.0402996 0)
(0.997779 -0.0404377 0)
(0.996856 -0.0404904 0)
(0.995929 -0.040462 0)
(0.995003 -0.0403568 0)
(0.994084 -0.0401798 0)
(0.993176 -0.0399363 0)
(0.992283 -0.0396315 0)
(0.991408 -0.0392707 0)
(0.990556 -0.0388595 0)
(0.989728 -0.038403 0)
(0.988927 -0.0379067 0)
(0.988155 -0.0373762 0)
(0.987413 -0.0368169 0)
(0.986703 -0.0362343 0)
(0.986028 -0.0356337 0)
(0.985389 -0.0350199 0)
(0.984788 -0.0343971 0)
(0.984224 -0.0337689 0)
(0.983692 -0.033138 0)
(0.983186 -0.032507 0)
(0.982699 -0.0318783 0)
(0.982227 -0.0312544 0)
(0.981772 -0.0306376 0)
(0.981335 -0.03003 0)
(0.980921 -0.0294333 0)
(0.98053 -0.0288489 0)
(0.980165 -0.0282778 0)
(0.979825 -0.0277209 0)
(0.979509 -0.0271791 0)
(0.979214 -0.026653 0)
(0.97894 -0.026143 0)
(0.978686 -0.0256496 0)
(0.978448 -0.0251731 0)
(0.978227 -0.0247138 0)
(0.978022 -0.024272 0)
(1.00658 -0.000756797 0)
(1.00663 -0.00258968 0)
(1.00673 -0.00413796 0)
(1.00686 -0.00580484 0)
(1.00702 -0.00740098 0)
(1.00721 -0.00900249 0)
(1.00742 -0.0106038 0)
(1.00765 -0.0122094 0)
(1.00788 -0.0138239 0)
(1.00812 -0.0154484 0)
(1.00835 -0.0170829 0)
(1.00856 -0.0187265 0)
(1.00876 -0.0203767 0)
(1.00892 -0.0220299 0)
(1.00906 -0.0236816 0)
(1.00914 -0.0253261 0)
(1.00918 -0.0269571 0)
(1.00915 -0.0285675 0)
(1.00907 -0.0301495 0)
(1.00891 -0.0316951 0)
(1.00868 -0.0331959 0)
(1.00837 -0.0346436 0)
(1.00799 -0.03603 0)
(1.00753 -0.0373472 0)
(1.00698 -0.0385876 0)
(1.00636 -0.0397445 0)
(1.00567 -0.0408118 0)
(1.00491 -0.0417844 0)
(1.00408 -0.042658 0)
(1.00319 -0.0434295 0)
(1.00224 -0.044097 0)
(1.00125 -0.0446595 0)
(1.00023 -0.0451171 0)
(0.999166 -0.0454711 0)
(0.998081 -0.0457235 0)
(0.996979 -0.0458774 0)
(0.995868 -0.0459367 0)
(0.994754 -0.0459058 0)
(0.993643 -0.0457899 0)
(0.992541 -0.0455946 0)
(0.991454 -0.045326 0)
(0.990385 -0.0449905 0)
(0.989341 -0.0445946 0)
(0.988322 -0.0441449 0)
(0.987334 -0.0436479 0)
(0.986378 -0.0431095 0)
(0.985457 -0.0425354 0)
(0.98457 -0.0419304 0)
(0.983718 -0.0412991 0)
(0.982898 -0.0406458 0)
(0.98211 -0.0399747 0)
(0.981352 -0.0392904 0)
(0.980628 -0.0385974 0)
(0.979942 -0.0379 0)
(0.979301 -0.0372021 0)
(0.978706 -0.0365068 0)
(0.978156 -0.0358169 0)
(0.977645 -0.0351345 0)
(0.977169 -0.0344617 0)
(0.976721 -0.0338005 0)
(0.976298 -0.0331526 0)
(0.975899 -0.0325196 0)
(0.975523 -0.0319025 0)
(0.975169 -0.0313026 0)
(0.974835 -0.0307206 0)
(0.974522 -0.0301572 0)
(0.974228 -0.0296127 0)
(0.973953 -0.0290876 0)
(0.973695 -0.0285821 0)
(1.00753 -0.000803437 0)
(1.00759 -0.00274031 0)
(1.0077 -0.00438089 0)
(1.00785 -0.00614775 0)
(1.00805 -0.00783989 0)
(1.00828 -0.00954169 0)
(1.00853 -0.0112455 0)
(1.00881 -0.0129574 0)
(1.00909 -0.0146826 0)
(1.00938 -0.0164229 0)
(1.00967 -0.0181791 0)
(1.00994 -0.0199507 0)
(1.0102 -0.0217358 0)
(1.01042 -0.0235311 0)
(1.01061 -0.0253325 0)
(1.01075 -0.0271343 0)
(1.01083 -0.0289302 0)
(1.01085 -0.0307129 0)
(1.01079 -0.0324743 0)
(1.01066 -0.0342059 0)
(1.01045 -0.0358985 0)
(1.01015 -0.037543 0)
(1.00976 -0.0391299 0)
(1.00927 -0.0406503 0)
(1.00869 -0.0420952 0)
(1.00802 -0.0434564 0)
(1.00726 -0.0447264 0)
(1.00641 -0.0458983 0)
(1.00548 -0.0469664 0)
(1.00448 -0.0479261 0)
(1.00341 -0.0487738 0)
(1.00227 -0.0495072 0)
(1.00109 -0.0501252 0)
(0.999862 -0.0506278 0)
(0.998599 -0.0510165 0)
(0.99731 -0.0512934 0)
(0.996003 -0.0514619 0)
(0.994686 -0.0515264 0)
(0.993369 -0.0514916 0)
(0.992057 -0.0513633 0)
(0.990758 -0.0511473 0)
(0.989479 -0.05085 0)
(0.988223 -0.0504778 0)
(0.986998 -0.0500372 0)
(0.985805 -0.0495347 0)
(0.98465 -0.0489771 0)
(0.983534 -0.0483716 0)
(0.98246 -0.0477251 0)
(0.981432 -0.0470449 0)
(0.980451 -0.046338 0)
(0.979521 -0.0456107 0)
(0.978642 -0.0448684 0)
(0.977811 -0.0441156 0)
(0.977021 -0.0433561 0)
(0.976265 -0.0425932 0)
(0.975538 -0.0418305 0)
(0.974839 -0.0410714 0)
(0.97417 -0.040319 0)
(0.973535 -0.0395761 0)
(0.972937 -0.0388449 0)
(0.972375 -0.0381273 0)
(0.971851 -0.0374249 0)
(0.971361 -0.0367391 0)
(0.970904 -0.0360709 0)
(0.970477 -0.0354215 0)
(0.970079 -0.0347915 0)
(0.969707 -0.0341816 0)
(0.96936 -0.0335925 0)
(0.969037 -0.0330246 0)
(1.00848 -0.000844955 0)
(1.00855 -0.00287353 0)
(1.00868 -0.00459636 0)
(1.00886 -0.0064519 0)
(1.00908 -0.00822904 0)
(1.00935 -0.01002 0)
(1.00965 -0.0118152 0)
(1.00997 -0.0136219 0)
(1.01031 -0.0154463 0)
(1.01066 -0.0172909 0)
(1.01101 -0.0191572 0)
(1.01135 -0.0210454 0)
(1.01167 -0.0229542 0)
(1.01196 -0.0248809 0)
(1.01221 -0.0268217 0)
(1.01241 -0.0287714 0)
(1.01255 -0.0307238 0)
(1.01262 -0.0326717 0)
(1.01261 -0.0346067 0)
(1.01252 -0.0365201 0)
(1.01234 -0.0384022 0)
(1.01205 -0.040243 0)
(1.01167 -0.0420324 0)
(1.01117 -0.0437601 0)
(1.01057 -0.045416 0)
(1.00986 -0.0469905 0)
(1.00904 -0.0484743 0)
(1.00812 -0.049859 0)
(1.00711 -0.0511373 0)
(1.006 -0.0523027 0)
(1.0048 -0.0533499 0)
(1.00353 -0.0542751 0)
(1.00219 -0.0550755 0)
(1.0008 -0.0557499 0)
(0.99935 -0.0562982 0)
(0.997868 -0.0567218 0)
(0.996357 -0.0570232 0)
(0.994828 -0.0572058 0)
(0.993292 -0.0572742 0)
(0.991756 -0.057234 0)
(0.990229 -0.0570911 0)
(0.988719 -0.0568527 0)
(0.987232 -0.0565261 0)
(0.985775 -0.0561193 0)
(0.984353 -0.0556403 0)
(0.98297 -0.0550972 0)
(0.98163 -0.0544973 0)
(0.980335 -0.0538477 0)
(0.979088 -0.0531545 0)
(0.977887 -0.0524235 0)
(0.976732 -0.0516603 0)
(0.975621 -0.0508705 0)
(0.974557 -0.0500602 0)
(0.973543 -0.0492355 0)
(0.972588 -0.0484023 0)
(0.971694 -0.0475655 0)
(0.970861 -0.0467291 0)
(0.970084 -0.0458968 0)
(0.969356 -0.0450716 0)
(0.968671 -0.0442564 0)
(0.968025 -0.0434539 0)
(0.967415 -0.0426665 0)
(0.96684 -0.0418961 0)
(0.966298 -0.0411446 0)
(0.965788 -0.0404132 0)
(0.96531 -0.0397032 0)
(0.964861 -0.0390153 0)
(0.96444 -0.0383503 0)
(0.964046 -0.0377089 0)
(1.00942 -0.00088199 0)
(1.0095 -0.00299128 0)
(1.00965 -0.00478705 0)
(1.00985 -0.00672094 0)
(1.01011 -0.00857305 0)
(1.01042 -0.0104429 0)
(1.01076 -0.0123188 0)
(1.01114 -0.0142097 0)
(1.01153 -0.0161222 0)
(1.01194 -0.0180598 0)
(1.01236 -0.0200248 0)
(1.01276 -0.0220182 0)
(1.01315 -0.0240393 0)
(1.01351 -0.0260862 0)
(1.01384 -0.0281556 0)
(1.01411 -0.0302429 0)
(1.01432 -0.0323423 0)
(1.01445 -0.0344467 0)
(1.01451 -0.0365481 0)
(1.01447 -0.0386374 0)
(1.01432 -0.0407047 0)
(1.01407 -0.0427397 0)
(1.01371 -0.0447313 0)
(1.01322 -0.0466685 0)
(1.01261 -0.0485399 0)
(1.01188 -0.0503345 0)
(1.01102 -0.0520417 0)
(1.01004 -0.0536515 0)
(1.00895 -0.0551544 0)
(1.00774 -0.0565424 0)
(1.00644 -0.0578082 0)
(1.00503 -0.0589461 0)
(1.00354 -0.0599515 0)
(1.00198 -0.0608214 0)
(1.00035 -0.0615543 0)
(0.998675 -0.06215 0)
(0.996956 -0.0626098 0)
(0.995207 -0.0629363 0)
(0.993441 -0.0631334 0)
(0.991668 -0.063206 0)
(0.989897 -0.0631601 0)
(0.98814 -0.0630022 0)
(0.986404 -0.0627393 0)
(0.984698 -0.062379 0)
(0.983028 -0.0619287 0)
(0.981401 -0.0613964 0)
(0.979821 -0.0607902 0)
(0.978293 -0.0601189 0)
(0.976821 -0.0593914 0)
(0.975409 -0.058617 0)
(0.97406 -0.0578047 0)
(0.972777 -0.0569624 0)
(0.97156 -0.0560969 0)
(0.970403 -0.0552138 0)
(0.969299 -0.0543181 0)
(0.968241 -0.0534144 0)
(0.967225 -0.0525075 0)
(0.966254 -0.0516021 0)
(0.965332 -0.0507022 0)
(0.964461 -0.0498115 0)
(0.963643 -0.048933 0)
(0.962876 -0.0480691 0)
(0.962158 -0.0472222 0)
(0.961486 -0.0463942 0)
(0.960858 -0.0455866 0)
(0.960271 -0.044801 0)
(0.959722 -0.0440384 0)
(0.959209 -0.0432999 0)
(0.958729 -0.0425864 0)
(1.01035 -0.00091508 0)
(1.01043 -0.00309526 0)
(1.0106 -0.00495538 0)
(1.01083 -0.00695824 0)
(1.01112 -0.00887618 0)
(1.01147 -0.0108155 0)
(1.01186 -0.0127623 0)
(1.01229 -0.0147271 0)
(1.01274 -0.0167174 0)
(1.01322 -0.0187372 0)
(1.0137 -0.0207898 0)
(1.01418 -0.022877 0)
(1.01465 -0.024999 0)
(1.01508 -0.0271547 0)
(1.01548 -0.0293416 0)
(1.01583 -0.0315556 0)
(1.01612 -0.0337916 0)
(1.01633 -0.0360431 0)
(1.01645 -0.0383022 0)
(1.01648 -0.04056 0)
(1.01639 -0.0428068 0)
(1.01619 -0.0450318 0)
(1.01586 -0.0472236 0)
(1.01539 -0.0493702 0)
(1.01479 -0.0514596 0)
(1.01405 -0.0534795 0)
(1.01317 -0.0554178 0)
(1.01215 -0.0572628 0)
(1.011 -0.0590036 0)
(1.00971 -0.0606299 0)
(1.00831 -0.0621326 0)
(1.00678 -0.0635039 0)
(1.00515 -0.0647371 0)
(1.00343 -0.0658271 0)
(1.00163 -0.0667706 0)
(0.999752 -0.0675656 0)
(0.997822 -0.0682119 0)
(0.995849 -0.0687105 0)
(0.993845 -0.0690644 0)
(0.991824 -0.0692774 0)
(0.989798 -0.0693548 0)
(0.987778 -0.069303 0)
(0.985775 -0.0691294 0)
(0.983799 -0.0688424 0)
(0.981857 -0.0684512 0)
(0.979958 -0.0679651 0)
(0.978107 -0.0673939 0)
(0.976311 -0.0667467 0)
(0.974574 -0.0660319 0)
(0.972896 -0.0652572 0)
(0.97128 -0.0644297 0)
(0.969724 -0.0635566 0)
(0.968229 -0.0626455 0)
(0.966799 -0.0617044 0)
(0.965442 -0.0607416 0)
(0.964164 -0.0597644 0)
(0.962966 -0.0587789 0)
(0.961844 -0.0577904 0)
(0.960791 -0.0568036 0)
(0.959799 -0.0558226 0)
(0.958862 -0.0548516 0)
(0.957979 -0.053894 0)
(0.957145 -0.0529531 0)
(0.95636 -0.0520314 0)
(0.955621 -0.0511313 0)
(0.954927 -0.0502545 0)
(0.954276 -0.0494027 0)
(0.953666 -0.0485771 0)
(0.953095 -0.0477789 0)
(1.01126 -0.000944551 0)
(1.01135 -0.00318671 0)
(1.01154 -0.00510341 0)
(1.01179 -0.00716672 0)
(1.01212 -0.0091421 0)
(1.01251 -0.0111421 0)
(1.01295 -0.0131508 0)
(1.01343 -0.0151801 0)
(1.01394 -0.0172382 0)
(1.01448 -0.0193299 0)
(1.01503 -0.0214595 0)
(1.01559 -0.0236296 0)
(1.01613 -0.0258413 0)
(1.01665 -0.0280944 0)
(1.01714 -0.0303873 0)
(1.01757 -0.0327168 0)
(1.01794 -0.0350785 0)
(1.01824 -0.0374666 0)
(1.01844 -0.0398738 0)
(1.01854 -0.0422917 0)
(1.01852 -0.0447105 0)
(1.01838 -0.0471197 0)
(1.0181 -0.0495076 0)
(1.01768 -0.0518618 0)
(1.0171 -0.0541695 0)
(1.01638 -0.0564175 0)
(1.01549 -0.0585924 0)
(1.01445 -0.0606812 0)
(1.01325 -0.0626711 0)
(1.0119 -0.06455 0)
(1.01041 -0.0663068 0)
(1.00878 -0.0679313 0)
(1.00703 -0.0694148 0)
(1.00515 -0.0707498 0)
(1.00318 -0.0719308 0)
(1.00112 -0.0729536 0)
(0.998977 -0.0738159 0)
(0.996777 -0.0745172 0)
(0.994533 -0.0750585 0)
(0.992257 -0.0754427 0)
(0.989964 -0.0756739 0)
(0.987668 -0.075758 0)
(0.985382 -0.0757015 0)
(0.983118 -0.0755121 0)
(0.980886 -0.0751981 0)
(0.978697 -0.0747678 0)
(0.97656 -0.0742305 0)
(0.97448 -0.0735959 0)
(0.972466 -0.0728745 0)
(0.970521 -0.0720776 0)
(0.968653 -0.0712167 0)
(0.966866 -0.0703031 0)
(0.965163 -0.0693467 0)
(0.963542 -0.0683557 0)
(0.961996 -0.0673371 0)
(0.960517 -0.0662975 0)
(0.959099 -0.0652431 0)
(0.957743 -0.0641807 0)
(0.956454 -0.0631163 0)
(0.955234 -0.0620552 0)
(0.954085 -0.0610021 0)
(0.953006 -0.059961 0)
(0.951994 -0.0589352 0)
(0.951046 -0.057928 0)
(0.950159 -0.0569419 0)
(0.949328 -0.0559792 0)
(0.94855 -0.0550418 0)
(0.947822 -0.0541315 0)
(0.947142 -0.05325 0)
(1.01214 -0.000970617 0)
(1.01225 -0.0032666 0)
(1.01245 -0.00523285 0)
(1.01273 -0.00734881 0)
(1.01309 -0.00937388 0)
(1.01352 -0.0114264 0)
(1.01401 -0.0134886 0)
(1.01454 -0.0155736 0)
(1.01512 -0.0176902 0)
(1.01572 -0.0198441 0)
(1.01634 -0.0220406 0)
(1.01697 -0.0242829 0)
(1.0176 -0.0265734 0)
(1.0182 -0.0289127 0)
(1.01878 -0.0313002 0)
(1.0193 -0.0337338 0)
(1.01976 -0.0362099 0)
(1.02015 -0.0387236 0)
(1.02044 -0.0412684 0)
(1.02063 -0.0438366 0)
(1.0207 -0.0464188 0)
(1.02063 -0.0490048 0)
(1.02042 -0.0515829 0)
(1.02005 -0.0541407 0)
(1.01952 -0.0566649 0)
(1.01883 -0.0591416 0)
(1.01796 -0.0615565 0)
(1.01691 -0.0638951 0)
(1.01569 -0.0661433 0)
(1.0143 -0.0682871 0)
(1.01274 -0.0703134 0)
(1.01103 -0.0722097 0)
(1.00916 -0.073965 0)
(1.00715 -0.0755695 0)
(1.00502 -0.0770149 0)
(1.00278 -0.0782946 0)
(1.00044 -0.079404 0)
(0.998016 -0.0803402 0)
(0.99553 -0.0811024 0)
(0.992996 -0.0816915 0)
(0.99043 -0.0821102 0)
(0.987848 -0.0823629 0)
(0.985265 -0.0824556 0)
(0.982696 -0.0823958 0)
(0.980154 -0.0821922 0)
(0.97765 -0.0818549 0)
(0.975195 -0.0813949 0)
(0.972798 -0.0808233 0)
(0.970467 -0.0801512 0)
(0.968207 -0.0793884 0)
(0.966022 -0.0785444 0)
(0.963914 -0.0776278 0)
(0.961884 -0.076648 0)
(0.959935 -0.0756149 0)
(0.958075 -0.0745394 0)
(0.956312 -0.0734319 0)
(0.954651 -0.0723016 0)
(0.953091 -0.0711561 0)
(0.951622 -0.0700023 0)
(0.950239 -0.0688463 0)
(0.948932 -0.0676939 0)
(0.947699 -0.0665505 0)
(0.946535 -0.0654208 0)
(0.945439 -0.0643089 0)
(0.944408 -0.0632183 0)
(0.943439 -0.0621521 0)
(0.94253 -0.0611126 0)
(0.941679 -0.0601022 0)
(0.940882 -0.0591227 0)
(1.01301 -0.000993497 0)
(1.01312 -0.00333581 0)
(1.01334 -0.00534517 0)
(1.01365 -0.00750659 0)
(1.01404 -0.00957422 0)
(1.01451 -0.0116718 0)
(1.01504 -0.0137796 0)
(1.01563 -0.0159121 0)
(1.01626 -0.0180785 0)
(1.01693 -0.0202855 0)
(1.01762 -0.0225391 0)
(1.01833 -0.0248437 0)
(1.01904 -0.0272024 0)
(1.01973 -0.029617 0)
(1.02039 -0.0320878 0)
(1.02101 -0.034614 0)
(1.02157 -0.0371931 0)
(1.02206 -0.039821 0)
(1.02245 -0.0424923 0)
(1.02273 -0.0452001 0)
(1.02289 -0.0479359 0)
(1.02292 -0.0506898 0)
(1.02279 -0.0534507 0)
(1.0225 -0.0562063 0)
(1.02203 -0.058943 0)
(1.02138 -0.0616467 0)
(1.02055 -0.0643022 0)
(1.01952 -0.0668944 0)
(1.01831 -0.0694075 0)
(1.01689 -0.0718261 0)
(1.01529 -0.074135 0)
(1.01351 -0.0763198 0)
(1.01156 -0.0783669 0)
(1.00943 -0.080264 0)
(1.00716 -0.0820001 0)
(1.00475 -0.0835659 0)
(1.00222 -0.0849541 0)
(0.999585 -0.086159 0)
(0.996862 -0.0871774 0)
(0.99407 -0.0880077 0)
(0.991227 -0.0886507 0)
(0.988353 -0.089109 0)
(0.985463 -0.0893873 0)
(0.982575 -0.0894918 0)
(0.979706 -0.08943 0)
(0.976869 -0.0892105 0)
(0.974078 -0.0888425 0)
(0.971346 -0.0883362 0)
(0.968682 -0.0877029 0)
(0.966097 -0.0869552 0)
(0.963598 -0.0861069 0)
(0.961192 -0.0851723 0)
(0.958888 -0.0841653 0)
(0.956688 -0.0830978 0)
(0.954588 -0.0819799 0)
(0.952579 -0.0808205 0)
(0.950655 -0.079628 0)
(0.948815 -0.0784115 0)
(0.947061 -0.0771796 0)
(0.945398 -0.0759404 0)
(0.94383 -0.0747007 0)
(0.942354 -0.0734666 0)
(0.940968 -0.0722433 0)
(0.939668 -0.0710356 0)
(0.93845 -0.0698476 0)
(0.937309 -0.068683 0)
(0.936241 -0.0675448 0)
(0.935242 -0.0664359 0)
(0.934307 -0.0653588 0)
(1.01384 -0.00101344 0)
(1.01397 -0.00339519 0)
(1.0142 -0.00544169 0)
(1.01453 -0.00764194 0)
(1.01496 -0.00974556 0)
(1.01546 -0.0118813 0)
(1.01604 -0.0140275 0)