/*--------------------------------*- C++ -*----------------------------------*\
  =========                 |
  \\      /  F ield         | OpenFOAM: The Open Source CFD Toolbox
   \\    /   O peration     | Website:  https://openfoam.org
    \\  /    A nd           | Version:  10
     \\/     M anipulation  |
\*---------------------------------------------------------------------------*/
FoamFile
{
    format      ascii;
    class       volVectorField;
    location    "520";
    object      U;
}
// * * * * * * * * * * * * * * * * * * * * * * * * * * * * * * * * * * * * * //

dimensions      [0 1 -1 0 0 0 0];

internalField   nonuniform List<vector> 
66268
(
(1 -4.15933e-05 0)
(1 -0.000152531 0)
(1 -0.000243389 0)
(1 -0.000338771 0)
(1 -0.000432281 0)
(1 -0.000524574 0)
(1 -0.000616325 0)
(1 -0.000707642 0)
(1 -0.000798481 0)
(1 -0.000888747 0)
(1 -0.000978259 0)
(1 -0.00106676 0)
(1 -0.00115394 0)
(1 -0.00123943 0)
(1 -0.00132282 0)
(1 -0.00140369 0)
(1 -0.00148162 0)
(1 -0.00155616 0)
(1 -0.00162692 0)
(1 -0.00169349 0)
(1 -0.00175554 0)
(1 -0.00181277 0)
(1 -0.00186492 0)
(1 -0.0019118 0)
(1 -0.00195328 0)
(1 -0.00198928 0)
(1 -0.0020198 0)
(1 -0.00204486 0)
(1 -0.00206457 0)
(1 -0.00207907 0)
(1 -0.00208857 0)
(1 -0.00209328 0)
(1 -0.0020935 0)
(1 -0.00208951 0)
(1 -0.00208165 0)
(0.999999 -0.00207027 0)
(0.999999 -0.00205572 0)
(0.999999 -0.00203836 0)
(0.999999 -0.00201852 0)
(0.999998 -0.00199649 0)
(0.999998 -0.00197254 0)
(0.999997 -0.00194688 0)
(0.999996 -0.00191969 0)
(0.999995 -0.00189111 0)
(0.999994 -0.00186127 0)
(0.999992 -0.00183028 0)
(0.999988 -0.00179822 0)
(0.999982 -0.00176517 0)
(0.999973 -0.00173123 0)
(0.999962 -0.00169653 0)
(0.99995 -0.00166129 0)
(0.999938 -0.00162576 0)
(0.999928 -0.00159025 0)
(0.999921 -0.00155504 0)
(0.999919 -0.00152038 0)
(0.999921 -0.00148646 0)
(0.999926 -0.00145343 0)
(0.999934 -0.0014214 0)
(0.999942 -0.00139042 0)
(0.999951 -0.00136055 0)
(0.999958 -0.00133179 0)
(0.999965 -0.00130416 0)
(0.999971 -0.00127764 0)
(0.999975 -0.00125223 0)
(0.999979 -0.0012279 0)
(0.999981 -0.00120463 0)
(0.999983 -0.00118239 0)
(0.999985 -0.00116118 0)
(0.999986 -0.00114102 0)
(1.00018 -0.000123649 0)
(1.00018 -0.000446382 0)
(1.00018 -0.000710045 0)
(1.00019 -0.000989724 0)
(1.00019 -0.00126259 0)
(1.0002 -0.00153159 0)
(1.0002 -0.00179896 0)
(1.00021 -0.00206482 0)
(1.00022 -0.00232906 0)
(1.00022 -0.0025914 0)
(1.00023 -0.00285133 0)
(1.00024 -0.00310812 0)
(1.00024 -0.00336086 0)
(1.00024 -0.00360848 0)
(1.00025 -0.00384984 0)
(1.00025 -0.00408372 0)
(1.00025 -0.00430886 0)
(1.00025 -0.00452402 0)
(1.00024 -0.00472802 0)
(1.00024 -0.00491974 0)
(1.00023 -0.00509817 0)
(1.00022 -0.00526245 0)
(1.00021 -0.00541184 0)
(1.00019 -0.00554578 0)
(1.00017 -0.0056639 0)
(1.00016 -0.00576598 0)
(1.00014 -0.00585198 0)
(1.00012 -0.00592204 0)
(1.00009 -0.00597644 0)
(1.00007 -0.0060156 0)
(1.00004 -0.00604008 0)
(1.00002 -0.00605055 0)
(0.999993 -0.00604778 0)
(0.999966 -0.00603254 0)
(0.999939 -0.00600566 0)
(0.999913 -0.00596793 0)
(0.999886 -0.00592018 0)
(0.99986 -0.00586322 0)
(0.999834 -0.00579789 0)
(0.999808 -0.00572506 0)
(0.999783 -0.00564566 0)
(0.999758 -0.00556064 0)
(0.999734 -0.005471 0)
(0.99971 -0.00537773 0)
(0.999687 -0.00528178 0)
(0.999665 -0.00518404 0)
(0.999643 -0.00508533 0)
(0.999624 -0.00498639 0)
(0.999606 -0.00488784 0)
(0.999591 -0.00479016 0)
(0.999579 -0.00469364 0)
(0.999568 -0.00459842 0)
(0.999557 -0.0045045 0)
(0.999544 -0.00441188 0)
(0.999529 -0.00432055 0)
(0.999512 -0.00423055 0)
(0.999493 -0.004142 0)
(0.999473 -0.00405504 0)
(0.999454 -0.00396981 0)
(0.999435 -0.00388649 0)
(0.999418 -0.0038052 0)
(0.999402 -0.00372608 0)
(0.999388 -0.00364922 0)
(0.999376 -0.00357471 0)
(0.999364 -0.00350261 0)
(0.999355 -0.00343297 0)
(0.999346 -0.0033658 0)
(0.999338 -0.00330114 0)
(0.999331 -0.00323909 0)
(1.00054 -0.000202292 0)
(1.00054 -0.000720077 0)
(1.00055 -0.00114268 0)
(1.00056 -0.00159524 0)
(1.00057 -0.00203427 0)
(1.00059 -0.00246679 0)
(1.00061 -0.00289659 0)
(1.00062 -0.00332355 0)
(1.00064 -0.00374755 0)
(1.00066 -0.0041682 0)
(1.00068 -0.00458472 0)
(1.00069 -0.00499594 0)
(1.00071 -0.00540043 0)
(1.00072 -0.00579654 0)
(1.00072 -0.00618245 0)
(1.00072 -0.00655622 0)
(1.00072 -0.00691586 0)
(1.00071 -0.00725939 0)
(1.0007 -0.0075849 0)
(1.00068 -0.0078906 0)
(1.00065 -0.00817485 0)
(1.00062 -0.00843622 0)
(1.00058 -0.00867352 0)
(1.00054 -0.00888582 0)
(1.00049 -0.00907246 0)
(1.00044 -0.00923306 0)
(1.00038 -0.00936751 0)
(1.00031 -0.00947597 0)
(1.00024 -0.00955887 0)
(1.00017 -0.00961684 0)
(1.0001 -0.00965073 0)
(1.00002 -0.00966158 0)
(0.999947 -0.00965058 0)
(0.999869 -0.00961904 0)
(0.99979 -0.00956839 0)
(0.999711 -0.0095001 0)
(0.999633 -0.00941579 0)
(0.999555 -0.00931707 0)
(0.999478 -0.00920561 0)
(0.999403 -0.00908298 0)
(0.999329 -0.00895067 0)
(0.999257 -0.00881 0)
(0.999186 -0.00866217 0)
(0.999118 -0.00850819 0)
(0.999053 -0.00834901 0)
(0.99899 -0.00818552 0)
(0.998929 -0.0080186 0)
(0.99887 -0.00784912 0)
(0.998813 -0.00767796 0)
(0.998757 -0.007506 0)
(0.998702 -0.00733411 0)
(0.998649 -0.00716312 0)
(0.998598 -0.00699379 0)
(0.998551 -0.00682678 0)
(0.998509 -0.0066626 0)
(0.998473 -0.00650164 0)
(0.998441 -0.00634422 0)
(0.998413 -0.00619056 0)
(0.998388 -0.00604087 0)
(0.998366 -0.00589533 0)
(0.998346 -0.00575408 0)
(0.998326 -0.00561727 0)
(0.998308 -0.00548499 0)
(0.99829 -0.0053573 0)
(0.998274 -0.00523427 0)
(0.998257 -0.0051159 0)
(0.998242 -0.00500218 0)
(0.998227 -0.00489313 0)
(0.998213 -0.00478874 0)
(1.00102 -0.000275808 0)
(1.00103 -0.000972593 0)
(1.00105 -0.00154298 0)
(1.00107 -0.00215669 0)
(1.00109 -0.00274901 0)
(1.00112 -0.00333278 0)
(1.00115 -0.00391274 0)
(1.00118 -0.00448847 0)
(1.00122 -0.00505994 0)
(1.00125 -0.00562675 0)
(1.00128 -0.00618788 0)
(1.00131 -0.00674183 0)
(1.00133 -0.00728673 0)
(1.00135 -0.00782044 0)
(1.00136 -0.00834053 0)
(1.00136 -0.00884444 0)
(1.00135 -0.0093295 0)
(1.00134 -0.00979306 0)
(1.00131 -0.0102325 0)
(1.00127 -0.0106454 0)
(1.00122 -0.0110294 0)
(1.00116 -0.0113826 0)
(1.00108 -0.0117032 0)
(1.001 -0.0119899 0)
(1.0009 -0.0122417 0)
(1.0008 -0.012458 0)
(1.00068 -0.0126384 0)
(1.00056 -0.0127832 0)
(1.00043 -0.0128928 0)
(1.0003 -0.0129681 0)
(1.00016 -0.01301 0)
(1.00001 -0.0130201 0)
(0.999868 -0.0129998 0)
(0.999719 -0.0129511 0)
(0.999569 -0.0128758 0)
(0.99942 -0.0127758 0)
(0.999272 -0.0126533 0)
(0.999125 -0.0125101 0)
(0.998981 -0.0123482 0)
(0.99884 -0.0121695 0)
(0.998703 -0.011976 0)
(0.998569 -0.0117695 0)
(0.99844 -0.011552 0)
(0.998316 -0.0113254 0)
(0.998196 -0.0110917 0)
(0.998082 -0.0108527 0)
(0.997973 -0.0106102 0)
(0.997871 -0.0103658 0)
(0.997775 -0.0101207 0)
(0.997686 -0.00987617 0)
(0.997604 -0.0096331 0)
(0.997527 -0.00939225 0)
(0.997455 -0.00915424 0)
(0.997385 -0.00891962 0)
(0.997316 -0.0086889 0)
(0.997248 -0.0084626 0)
(0.997179 -0.00824116 0)
(0.997112 -0.00802501 0)
(0.997048 -0.00781445 0)
(0.996986 -0.00760977 0)
(0.996928 -0.00741113 0)
(0.996874 -0.0072187 0)
(0.996823 -0.00703255 0)
(0.996777 -0.00685277 0)
(0.996734 -0.00667938 0)
(0.996694 -0.00651238 0)
(0.996658 -0.00635178 0)
(0.996624 -0.00619755 0)
(0.996593 -0.00604973 0)
(1.00159 -0.000343525 0)
(1.0016 -0.00120522 0)
(1.00163 -0.00191492 0)
(1.00166 -0.00267867 0)
(1.0017 -0.00341293 0)
(1.00174 -0.00413767 0)
(1.00179 -0.00485759 0)
(1.00184 -0.00557208 0)
(1.00189 -0.00628141 0)
(1.00194 -0.00698524 0)
(1.00199 -0.00768235 0)
(1.00203 -0.00837102 0)
(1.00207 -0.00904908 0)
(1.0021 -0.00971394 0)
(1.00211 -0.0103627 0)
(1.00212 -0.0109922 0)
(1.0021 -0.0115993 0)
(1.00208 -0.0121805 0)
(1.00203 -0.0127326 0)
(1.00197 -0.0132525 0)
(1.0019 -0.0137373 0)
(1.0018 -0.0141843 0)
(1.00169 -0.0145913 0)
(1.00155 -0.0149563 0)
(1.00141 -0.0152779 0)
(1.00124 -0.0155551 0)
(1.00106 -0.0157875 0)
(1.00087 -0.0159749 0)
(1.00067 -0.0161179 0)
(1.00046 -0.0162171 0)
(1.00024 -0.0162738 0)
(1.00001 -0.0162896 0)
(0.999775 -0.0162664 0)
(0.999539 -0.0162062 0)
(0.999302 -0.0161113 0)
(0.999064 -0.0159841 0)
(0.998827 -0.0158273 0)
(0.998593 -0.0156436 0)
(0.998363 -0.0154356 0)
(0.998136 -0.0152063 0)
(0.997915 -0.0149583 0)
(0.997699 -0.0146945 0)
(0.997489 -0.0144172 0)
(0.997286 -0.0141287 0)
(0.99709 -0.013831 0)
(0.996902 -0.013526 0)
(0.99672 -0.0132154 0)
(0.996547 -0.0129007 0)
(0.99638 -0.0125835 0)
(0.996219 -0.0122653 0)
(0.996065 -0.0119475 0)
(0.995916 -0.0116315 0)
(0.995774 -0.0113185 0)
(0.995639 -0.0110097 0)
(0.995515 -0.0107059 0)
(0.995399 -0.0104079 0)
(0.995294 -0.0101163 0)
(0.995197 -0.00983137 0)
(0.995108 -0.00955363 0)
(0.995025 -0.0092834 0)
(0.994948 -0.00902098 0)
(0.994875 -0.00876662 0)
(0.994807 -0.00852053 0)
(0.994743 -0.00828284 0)
(0.994682 -0.00805364 0)
(0.994625 -0.00783298 0)
(0.994572 -0.00762085 0)
(0.994521 -0.00741725 0)
(0.994474 -0.00722217 0)
(1.00222 -0.00040698 0)
(1.00223 -0.00142321 0)
(1.00227 -0.00226578 0)
(1.00231 -0.003171 0)
(1.00237 -0.00403902 0)
(1.00243 -0.00489755 0)
(1.0025 -0.00575049 0)
(1.00257 -0.0065972 0)
(1.00264 -0.00743846 0)
(1.00272 -0.00827404 0)
(1.00278 -0.00910265 0)
(1.00284 -0.00992243 0)
(1.0029 -0.010731 0)
(1.00294 -0.0115255 0)
(1.00296 -0.0123027 0)
(1.00297 -0.0130588 0)
(1.00296 -0.0137902 0)
(1.00292 -0.0144928 0)
(1.00287 -0.0151629 0)
(1.00279 -0.0157965 0)
(1.00268 -0.0163901 0)
(1.00255 -0.0169404 0)
(1.00239 -0.0174444 0)
(1.00221 -0.0178997 0)
(1.002 -0.018304 0)
(1.00177 -0.0186561 0)
(1.00152 -0.0189549 0)
(1.00125 -0.0192001 0)
(1.00096 -0.0193918 0)
(1.00066 -0.0195306 0)
(1.00034 -0.0196179 0)
(1.00002 -0.0196551 0)
(0.999684 -0.0196443 0)
(0.999343 -0.019588 0)
(0.999 -0.0194887 0)
(0.998655 -0.0193494 0)
(0.99831 -0.0191732 0)
(0.997968 -0.0189631 0)
(0.99763 -0.0187223 0)
(0.997298 -0.0184539 0)
(0.996973 -0.018161 0)
(0.996656 -0.0178463 0)
(0.996348 -0.017513 0)
(0.99605 -0.0171638 0)
(0.995763 -0.0168017 0)
(0.995487 -0.0164295 0)
(0.995223 -0.0160498 0)
(0.994972 -0.0156651 0)
(0.994734 -0.0152776 0)
(0.99451 -0.0148893 0)
(0.994301 -0.0145016 0)
(0.994104 -0.014116 0)
(0.99392 -0.0137337 0)
(0.993744 -0.0133557 0)
(0.993576 -0.0129831 0)
(0.993413 -0.0126169 0)
(0.993255 -0.012258 0)
(0.993104 -0.0119072 0)
(0.992959 -0.0115653 0)
(0.992821 -0.0112326 0)
(0.992692 -0.0109096 0)
(0.992571 -0.0105965 0)
(0.992458 -0.0102936 0)
(0.992353 -0.0100009 0)
(0.992255 -0.00971853 0)
(0.992165 -0.00944652 0)
(0.99208 -0.00918486 0)
(0.992002 -0.00893354 0)
(0.991929 -0.00869257 0)
(1.0029 -0.00046843 0)
(1.00292 -0.00163238 0)
(1.00297 -0.00260251 0)
(1.00302 -0.00364349 0)
(1.0031 -0.00464018 0)
(1.00318 -0.00562808 0)
(1.00327 -0.00660989 0)
(1.00337 -0.00758524 0)
(1.00346 -0.00855554 0)
(1.00356 -0.00952069 0)
(1.00366 -0.0104794 0)
(1.00374 -0.01143 0)
(1.00381 -0.0123698 0)
(1.00387 -0.0132959 0)
(1.00391 -0.0142047 0)
(1.00393 -0.0150921 0)
(1.00392 -0.015954 0)
(1.00388 -0.016786 0)
(1.00382 -0.0175834 0)
(1.00372 -0.018342 0)
(1.00359 -0.0190572 0)
(1.00342 -0.0197252 0)
(1.00322 -0.0203421 0)
(1.00298 -0.0209048 0)
(1.00272 -0.0214105 0)
(1.00242 -0.021857 0)
(1.00209 -0.0222429 0)
(1.00173 -0.022567 0)
(1.00135 -0.0228293 0)
(1.00095 -0.02303 0)
(1.00052 -0.02317 0)
(1.00009 -0.0232508 0)
(0.999635 -0.0232745 0)
(0.999175 -0.0232434 0)
(0.99871 -0.0231604 0)
(0.998241 -0.0230284 0)
(0.997773 -0.0228509 0)
(0.997307 -0.0226313 0)
(0.996846 -0.0223732 0)
(0.996392 -0.0220804 0)
(0.995947 -0.0217568 0)
(0.995513 -0.0214062 0)
(0.99509 -0.0210322 0)
(0.994681 -0.0206383 0)
(0.994285 -0.0202278 0)
(0.993904 -0.0198035 0)
(0.993538 -0.0193682 0)
(0.993187 -0.0189243 0)
(0.992851 -0.0184742 0)
(0.992529 -0.0180203 0)
(0.992219 -0.0175648 0)
(0.991923 -0.0171098 0)
(0.991639 -0.0166575 0)
(0.991371 -0.0162096 0)
(0.99112 -0.0157677 0)
(0.990886 -0.015333 0)
(0.99067 -0.0149064 0)
(0.990469 -0.0144886 0)
(0.990283 -0.0140804 0)
(0.99011 -0.0136824 0)
(0.989948 -0.0132952 0)
(0.989796 -0.0129193 0)
(0.989652 -0.012555 0)
(0.989518 -0.0122026 0)
(0.989391 -0.0118624 0)
(0.989273 -0.0115345 0)
(0.989161 -0.0112189 0)
(0.989057 -0.0109156 0)
(0.988959 -0.0106248 0)
(1.00365 -0.000529061 0)
(1.00367 -0.00183561 0)
(1.00373 -0.00292853 0)
(1.0038 -0.00410115 0)
(1.00389 -0.00522287 0)
(1.004 -0.00633694 0)
(1.00411 -0.00744474 0)
(1.00424 -0.00854642 0)
(1.00436 -0.00964406 0)
(1.00449 -0.0107377 0)
(1.00461 -0.0118264 0)
(1.00473 -0.0129084 0)
(1.00483 -0.0139812 0)
(1.00491 -0.0150418 0)
(1.00497 -0.0160865 0)
(1.005 -0.0171109 0)
(1.005 -0.0181107 0)
(1.00496 -0.0190807 0)
(1.00489 -0.0200162 0)
(1.00478 -0.0209118 0)
(1.00463 -0.0217628 0)
(1.00443 -0.0225642 0)
(1.00419 -0.0233115 0)
(1.0039 -0.0240007 0)
(1.00357 -0.0246281 0)
(1.0032 -0.0251908 0)
(1.00279 -0.0256863 0)
(1.00235 -0.0261131 0)
(1.00187 -0.0264701 0)
(1.00135 -0.0267571 0)
(1.00082 -0.0269744 0)
(1.00026 -0.0271232 0)
(0.999681 -0.0272051 0)
(0.999091 -0.0272225 0)
(0.998491 -0.027178 0)
(0.997885 -0.0270749 0)
(0.997277 -0.0269168 0)
(0.996671 -0.0267074 0)
(0.99607 -0.0264508 0)
(0.995477 -0.0261512 0)
(0.994894 -0.0258126 0)
(0.994324 -0.025439 0)
(0.993768 -0.0250346 0)
(0.993228 -0.0246032 0)
(0.992706 -0.0241487 0)
(0.992203 -0.0236752 0)
(0.99172 -0.0231865 0)
(0.991257 -0.022686 0)
(0.990817 -0.0221773 0)
(0.990399 -0.0216632 0)
(0.990005 -0.0211464 0)
(0.989634 -0.0206291 0)
(0.989285 -0.0201132 0)
(0.988954 -0.0196005 0)
(0.988639 -0.0190927 0)
(0.988336 -0.0185915 0)
(0.988046 -0.0180984 0)
(0.987769 -0.0176149 0)
(0.987504 -0.017142 0)
(0.987254 -0.0166808 0)
(0.987019 -0.0162318 0)
(0.986798 -0.0157956 0)
(0.986592 -0.0153726 0)
(0.9864 -0.014963 0)
(0.986221 -0.0145672 0)
(0.986055 -0.0141852 0)
(0.985899 -0.0138172 0)
(0.985755 -0.0134632 0)
(0.98562 -0.0131233 0)
(1.00444 -0.00058867 0)
(1.00447 -0.00203262 0)
(1.00454 -0.00324378 0)
(1.00463 -0.00454393 0)
(1.00474 -0.00578679 0)
(1.00487 -0.00702366 0)
(1.00502 -0.00825433 0)
(1.00517 -0.00947969 0)
(1.00533 -0.0107025 0)
(1.0055 -0.0119231 0)
(1.00565 -0.0131408 0)
(1.0058 -0.0143541 0)
(1.00593 -0.0155608 0)
(1.00604 -0.0167578 0)
(1.00612 -0.0179414 0)
(1.00617 -0.0191073 0)
(1.00619 -0.0202506 0)
(1.00617 -0.0213663 0)
(1.0061 -0.0224487 0)
(1.00598 -0.0234923 0)
(1.00581 -0.0244914 0)
(1.00559 -0.0254405 0)
(1.00531 -0.0263342 0)
(1.00498 -0.0271676 0)
(1.00459 -0.027936 0)
(1.00415 -0.0286355 0)
(1.00366 -0.0292627 0)
(1.00312 -0.0298149 0)
(1.00254 -0.0302904 0)
(1.00192 -0.0306878 0)
(1.00126 -0.0310071 0)
(1.00058 -0.0312486 0)
(0.999864 -0.0314135 0)
(0.999132 -0.0315038 0)
(0.998386 -0.0315219 0)
(0.99763 -0.0314711 0)
(0.996869 -0.0313549 0)
(0.996107 -0.0311771 0)
(0.99535 -0.030942 0)
(0.994601 -0.0306542 0)
(0.993862 -0.0303182 0)
(0.993138 -0.029939 0)
(0.992432 -0.0295214 0)
(0.991744 -0.0290702 0)
(0.991077 -0.02859 0)
(0.990433 -0.0280851 0)
(0.989812 -0.0275594 0)
(0.989216 -0.0270165 0)
(0.988643 -0.0264599 0)
(0.988094 -0.0258929 0)
(0.987566 -0.0253188 0)
(0.98706 -0.0247407 0)
(0.986577 -0.0241617 0)
(0.986118 -0.0235846 0)
(0.985686 -0.0230118 0)
(0.985282 -0.0224452 0)
(0.984907 -0.0218863 0)
(0.984559 -0.0213365 0)
(0.984234 -0.020797 0)
(0.983931 -0.020269 0)
(0.983646 -0.0197535 0)
(0.983379 -0.0192514 0)
(0.983128 -0.0187634 0)
(0.982891 -0.0182902 0)
(0.982669 -0.0178323 0)
(0.98246 -0.0173899 0)
(0.982264 -0.0169633 0)
(0.982081 -0.0165527 0)
(0.981909 -0.0161582 0)
(1.00528 -0.000646436 0)
(1.00531 -0.0022216 0)
(1.0054 -0.00354617 0)
(1.0055 -0.00496881 0)
(1.00564 -0.00632793 0)
(1.0058 -0.00768318 0)
(1.00597 -0.00903252 0)
(1.00616 -0.0103777 0)
(1.00636 -0.0117222 0)
(1.00656 -0.0130667 0)
(1.00675 -0.0144108 0)
(1.00693 -0.0157536 0)
(1.0071 -0.017093 0)
(1.00725 -0.0184261 0)
(1.00736 -0.0197494 0)
(1.00744 -0.0210585 0)
(1.00748 -0.0223485 0)
(1.00748 -0.0236142 0)
(1.00742 -0.0248497 0)
(1.0073 -0.0260489 0)
(1.00712 -0.0272057 0)
(1.00688 -0.0283137 0)
(1.00658 -0.0293668 0)
(1.00621 -0.0303591 0)
(1.00577 -0.0312849 0)
(1.00527 -0.0321393 0)
(1.0047 -0.0329177 0)
(1.00408 -0.0336164 0)
(1.0034 -0.0342324 0)
(1.00266 -0.0347635 0)
(1.00189 -0.0352085 0)
(1.00107 -0.0355668 0)
(1.00022 -0.035839 0)
(0.999336 -0.0360263 0)
(0.998435 -0.0361308 0)
(0.997518 -0.036155 0)
(0.996591 -0.0361025 0)
(0.995661 -0.0359771 0)
(0.994733 -0.0357832 0)
(0.993812 -0.0355255 0)
(0.992901 -0.035209 0)
(0.992006 -0.0348389 0)
(0.991129 -0.0344201 0)
(0.990274 -0.0339577 0)
(0.989443 -0.0334569 0)
(0.988639 -0.0329227 0)
(0.987863 -0.0323604 0)
(0.987117 -0.0317747 0)
(0.986402 -0.0311707 0)
(0.985722 -0.0305527 0)
(0.985076 -0.0299248 0)
(0.984465 -0.0292903 0)
(0.983889 -0.0286523 0)
(0.983343 -0.0280134 0)
(0.982823 -0.0273762 0)
(0.982326 -0.0267433 0)
(0.98185 -0.0261172 0)
(0.981395 -0.0255 0)
(0.980962 -0.0248937 0)
(0.980553 -0.0242997 0)
(0.980168 -0.0237192 0)
(0.979807 -0.0231532 0)
(0.979469 -0.0226025 0)
(0.979153 -0.0220677 0)
(0.978859 -0.0215494 0)
(0.978584 -0.0210479 0)
(0.978327 -0.0205636 0)
(0.978088 -0.0200967 0)
(0.977865 -0.0196474 0)
(1.00614 -0.000701564 0)
(1.00618 -0.00240061 0)
(1.00628 -0.00383306 0)
(1.0064 -0.00537199 0)
(1.00657 -0.00684138 0)
(1.00675 -0.00830938 0)
(1.00696 -0.00977186 0)
(1.00719 -0.0112316 0)
(1.00742 -0.0126927 0)
(1.00766 -0.0141563 0)
(1.0079 -0.0156225 0)
(1.00812 -0.0170908 0)
(1.00833 -0.0185594 0)
(1.00852 -0.0200258 0)
(1.00867 -0.0214868 0)
(1.00879 -0.0229381 0)
(1.00886 -0.0243749 0)
(1.00888 -0.0257919 0)
(1.00884 -0.0271831 0)
(1.00874 -0.0285422 0)
(1.00856 -0.0298624 0)
(1.00832 -0.0311369 0)
(1.00799 -0.0323589 0)
(1.00759 -0.0335215 0)
(1.00711 -0.0346181 0)
(1.00656 -0.0356425 0)
(1.00593 -0.0365891 0)
(1.00522 -0.0374529 0)
(1.00445 -0.0382295 0)
(1.00361 -0.0389156 0)
(1.00271 -0.0395086 0)
(1.00176 -0.040007 0)
(1.00077 -0.04041 0)
(0.999734 -0.0407182 0)
(0.998671 -0.0409328 0)
(0.997584 -0.0410559 0)
(0.996482 -0.0410906 0)
(0.995371 -0.0410405 0)
(0.994257 -0.04091 0)
(0.993147 -0.0407039 0)
(0.992047 -0.0404273 0)
(0.990962 -0.0400858 0)
(0.989896 -0.0396851 0)
(0.988854 -0.0392313 0)
(0.987839 -0.0387302 0)
(0.986855 -0.0381877 0)
(0.985902 -0.0376091 0)
(0.984983 -0.0369996 0)
(0.984099 -0.0363639 0)
(0.983248 -0.0357065 0)
(0.982431 -0.0350321 0)
(0.981646 -0.034345 0)
(0.980894 -0.0336496 0)
(0.980177 -0.03295 0)
(0.9795 -0.03225 0)
(0.978865 -0.0315524 0)
(0.978272 -0.0308599 0)
(0.977719 -0.0301746 0)
(0.977202 -0.0294984 0)
(0.976718 -0.0288333 0)
(0.976263 -0.0281809 0)
(0.975835 -0.0275429 0)
(0.975432 -0.0269206 0)
(0.975052 -0.0263151 0)
(0.974695 -0.0257273 0)
(0.97436 -0.0251578 0)
(0.974045 -0.0246073 0)
(0.97375 -0.0240761 0)
(0.973474 -0.0235646 0)
(1.00702 -0.00075347 0)
(1.00707 -0.0025681 0)
(1.00719 -0.00410211 0)
(1.00733 -0.00575018 0)
(1.00752 -0.0073229 0)
(1.00773 -0.00889697 0)
(1.00798 -0.0104659 0)
(1.00824 -0.0120337 0)
(1.00851 -0.0136051 0)
(1.0088 -0.0151815 0)
(1.00908 -0.0167638 0)
(1.00935 -0.0183518 0)
(1.00961 -0.0199443 0)
(1.00984 -0.0215391 0)
(1.01004 -0.0231334 0)
(1.0102 -0.0247232 0)
(1.01031 -0.0263041 0)
(1.01037 -0.0278708 0)
(1.01036 -0.0294172 0)
(1.01027 -0.0309371 0)
(1.01011 -0.0324233 0)
(1.00987 -0.0338687 0)
(1.00955 -0.0352656 0)
(1.00913 -0.0366067 0)
(1.00862 -0.0378842 0)
(1.00802 -0.039091 0)
(1.00733 -0.0402201 0)
(1.00656 -0.0412652 0)
(1.0057 -0.0422207 0)
(1.00476 -0.0430816 0)
(1.00375 -0.043844 0)
(1.00267 -0.044505 0)
(1.00154 -0.0450627 0)
(1.00035 -0.0455162 0)
(0.999121 -0.0458658 0)
(0.997859 -0.0461127 0)
(0.996573 -0.0462591 0)
(0.99527 -0.0463081 0)
(0.993959 -0.0462636 0)
(0.992648 -0.0461301 0)
(0.991343 -0.0459127 0)
(0.990052 -0.0456171 0)
(0.988781 -0.0452491 0)
(0.987533 -0.0448149 0)
(0.986315 -0.0443207 0)
(0.985129 -0.0437727 0)
(0.98398 -0.0431776 0)
(0.98287 -0.0425418 0)
(0.981802 -0.0418718 0)
(0.980779 -0.0411739 0)
(0.979803 -0.0404539 0)
(0.978876 -0.0397171 0)
(0.977997 -0.0389677 0)
(0.977164 -0.0382097 0)
(0.97637 -0.037447 0)
(0.975611 -0.0366831 0)
(0.974885 -0.0359218 0)
(0.97419 -0.0351663 0)
(0.973528 -0.0344197 0)
(0.972902 -0.0336843 0)
(0.972313 -0.0329622 0)
(0.971759 -0.0322549 0)
(0.971241 -0.0315639 0)
(0.970756 -0.0308903 0)
(0.970302 -0.0302353 0)
(0.969878 -0.0295995 0)
(0.969482 -0.0289837 0)
(0.969112 -0.0283885 0)
(0.968766 -0.0278144 0)
(1.00792 -0.000801783 0)
(1.00798 -0.00272304 0)
(1.0081 -0.00435157 0)
(1.00827 -0.00610086 0)
(1.00848 -0.00776931 0)
(1.00873 -0.00944203 0)
(1.00901 -0.0111101 0)
(1.00931 -0.0127785 0)
(1.00963 -0.0144527 0)
(1.00996 -0.0161348 0)
(1.01029 -0.017826 0)
(1.01061 -0.0195267 0)
(1.01092 -0.0212362 0)
(1.0112 -0.0229529 0)
(1.01146 -0.0246744 0)
(1.01166 -0.0263973 0)
(1.01182 -0.0281174 0)
(1.01192 -0.0298297 0)
(1.01195 -0.0315285 0)
(1.0119 -0.0332074 0)
(1.01177 -0.0348595 0)
(1.01155 -0.0364771 0)
(1.01123 -0.0380524 0)
(1.01081 -0.0395772 0)
(1.01029 -0.0410432 0)
(1.00966 -0.0424421 0)
(1.00893 -0.0437657 0)
(1.00809 -0.0450065 0)
(1.00716 -0.0461573 0)
(1.00613 -0.0472117 0)
(1.00501 -0.0481642 0)
(1.00381 -0.0490102 0)
(1.00254 -0.0497461 0)
(1.0012 -0.0503697 0)
(0.99981 -0.0508797 0)
(0.998371 -0.0512761 0)
(0.996895 -0.0515601 0)
(0.995394 -0.0517338 0)
(0.993876 -0.0518006 0)
(0.992351 -0.0517648 0)
(0.990827 -0.0516313 0)
(0.989313 -0.0514059 0)
(0.987816 -0.0510949 0)
(0.986343 -0.0507051 0)
(0.984899 -0.0502435 0)
(0.983491 -0.0497173 0)
(0.982121 -0.0491335 0)
(0.980794 -0.0484989 0)
(0.979512 -0.0478197 0)
(0.978276 -0.047102 0)
(0.977086 -0.0463516 0)
(0.975939 -0.0455744 0)
(0.974838 -0.0447763 0)
(0.973785 -0.0439634 0)
(0.972785 -0.0431411 0)
(0.971842 -0.0423139 0)
(0.970959 -0.0414859 0)
(0.970133 -0.0406603 0)
(0.969358 -0.0398402 0)
(0.96863 -0.0390285 0)
(0.967945 -0.0382281 0)
(0.967299 -0.0374414 0)
(0.966689 -0.0366706 0)
(0.966115 -0.0359176 0)
(0.965575 -0.0351839 0)
(0.965067 -0.0344708 0)
(0.96459 -0.0337793 0)
(0.964143 -0.0331102 0)
(0.963725 -0.0324643 0)
(1.00881 -0.000846321 0)
(1.00888 -0.00286485 0)
(1.00902 -0.00458028 0)
(1.00921 -0.00642242 0)
(1.00945 -0.0081786 0)
(1.00973 -0.00994205 0)
(1.01004 -0.0117012 0)
(1.01039 -0.0134624 0)
(1.01075 -0.0152318 0)
(1.01113 -0.0170116 0)
(1.01151 -0.0188038 0)
(1.01189 -0.0206094 0)
(1.01225 -0.0224283 0)
(1.01259 -0.0242595 0)
(1.0129 -0.026101 0)
(1.01317 -0.02795 0)
(1.01338 -0.029803 0)
(1.01353 -0.0316554 0)
(1.01361 -0.0335018 0)
(1.01361 -0.0353363 0)
(1.01352 -0.0371518 0)
(1.01333 -0.038941 0)
(1.01303 -0.0406957 0)
(1.01262 -0.0424073 0)
(1.0121 -0.0440669 0)
(1.01146 -0.0456653 0)
(1.0107 -0.0471935 0)
(1.00982 -0.0486424 0)
(1.00883 -0.0500035 0)
(1.00772 -0.0512689 0)
(1.00651 -0.0524311 0)
(1.0052 -0.0534838 0)
(1.0038 -0.0544217 0)
(1.00232 -0.0552406 0)
(1.00076 -0.0559377 0)
(0.999144 -0.0565113 0)
(0.997478 -0.0569612 0)
(0.995773 -0.0572884 0)
(0.99404 -0.0574952 0)
(0.992291 -0.0575848 0)
(0.990535 -0.0575617 0)
(0.988784 -0.0574309 0)
(0.987046 -0.0571985 0)
(0.98533 -0.0568709 0)
(0.983642 -0.056455 0)
(0.981991 -0.0559581 0)
(0.980381 -0.0553879 0)
(0.978818 -0.0547523 0)
(0.977306 -0.0540596 0)
(0.975849 -0.0533182 0)
(0.974452 -0.0525361 0)
(0.973118 -0.0517207 0)
(0.971849 -0.0508785 0)
(0.970642 -0.0500153 0)
(0.969491 -0.049136 0)
(0.96839 -0.048246 0)
(0.967335 -0.0473503 0)
(0.966324 -0.0464539 0)
(0.965362 -0.0455613 0)
(0.964449 -0.0446762 0)
(0.963589 -0.0438018 0)
(0.962779 -0.0429408 0)
(0.96202 -0.0420954 0)
(0.961309 -0.0412676 0)
(0.960642 -0.0404593 0)
(0.960018 -0.0396719 0)
(0.959434 -0.0389066 0)
(0.958888 -0.0381647 0)
(0.958377 -0.0374471 0)
(1.00971 -0.000887027 0)
(1.00978 -0.00299336 0)
(1.00994 -0.00478774 0)
(1.01014 -0.00671414 0)
(1.01041 -0.00854994 0)
(1.01072 -0.010396 0)
(1.01108 -0.0122383 0)
(1.01146 -0.0140843 0)
(1.01187 -0.0159406 0)
(1.0123 -0.0178101 0)
(1.01273 -0.0196954 0)
(1.01317 -0.0215979 0)
(1.01359 -0.0235182 0)
(1.014 -0.0254558 0)
(1.01437 -0.0274095 0)
(1.0147 -0.0293772 0)
(1.01497 -0.0313559 0)
(1.01519 -0.0333417 0)
(1.01533 -0.0353298 0)
(1.01538 -0.0373148 0)
(1.01534 -0.03929 0)
(1.01519 -0.0412481 0)
(1.01493 -0.0431813 0)
(1.01455 -0.0450806 0)
(1.01404 -0.0469368 0)
(1.0134 -0.0487402 0)
(1.01264 -0.0504807 0)
(1.01173 -0.0521483 0)
(1.0107 -0.0537331 0)
(1.00953 -0.0552253 0)
(1.00824 -0.0566159 0)
(1.00684 -0.0578967 0)
(1.00532 -0.0590604 0)
(1.0037 -0.0601006 0)
(1.00199 -0.0610127 0)
(1.0002 -0.0617928 0)
(0.998345 -0.0624391 0)
(0.996436 -0.0629507 0)
(0.994484 -0.0633283 0)
(0.992504 -0.0635743 0)
(0.990508 -0.0636921 0)
(0.988506 -0.0636863 0)
(0.986511 -0.0635629 0)
(0.984533 -0.0633286 0)
(0.982581 -0.0629911 0)
(0.980663 -0.0625586 0)
(0.978787 -0.0620393 0)
(0.97696 -0.0614418 0)
(0.975185 -0.0607741 0)
(0.973467 -0.0600436 0)
(0.971807 -0.0592579 0)
(0.970204 -0.0584243 0)
(0.96866 -0.0575506 0)
(0.967177 -0.0566446 0)
(0.965761 -0.0557143 0)
(0.964422 -0.0547666 0)
(0.96316 -0.0538075 0)
(0.961976 -0.0528421 0)
(0.960864 -0.0518748 0)
(0.959816 -0.0509101 0)
(0.958828 -0.0499522 0)
(0.957894 -0.049005 0)
(0.957012 -0.0480719 0)
(0.95618 -0.0471559 0)
(0.955397 -0.0462594 0)
(0.95466 -0.0453847 0)
(0.953968 -0.0445333 0)
(0.953319 -0.043707 0)
(0.952711 -0.0429068 0)
(1.01059 -0.00092389 0)
(1.01067 -0.00310865 0)
(1.01084 -0.00497404 0)
(1.01107 -0.00697621 0)
(1.01136 -0.00888359 0)
(1.01171 -0.0108044 0)
(1.0121 -0.0127218 0)
(1.01253 -0.0146447 0)
(1.01299 -0.0165801 0)
(1.01347 -0.0185313 0)
(1.01396 -0.0205016 0)
(1.01445 -0.022493 0)
(1.01494 -0.0245066 0)
(1.0154 -0.0265427 0)
(1.01584 -0.0286006 0)
(1.01624 -0.0306791 0)
(1.01658 -0.0327759 0)
(1.01687 -0.0348878 0)
(1.01707 -0.0370108 0)
(1.01719 -0.0391401 0)
(1.01721 -0.0412697 0)
(1.01712 -0.0433928 0)
(1.01691 -0.0455016 0)
(1.01657 -0.0475877 0)
(1.0161 -0.0496416 0)
(1.01549 -0.0516531 0)
(1.01473 -0.0536117 0)
(1.01382 -0.0555064 0)
(1.01276 -0.057326 0)
(1.01156 -0.0590594 0)
(1.01021 -0.0606958 0)
(1.00872 -0.0622251 0)
(1.0071 -0.0636377 0)
(1.00536 -0.0649253 0)
(1.00351 -0.0660805 0)
(1.00156 -0.0670975 0)
(0.999522 -0.067972 0)
(0.997412 -0.0687012 0)
(0.995242 -0.069284 0)
(0.993028 -0.069721 0)
(0.990783 -0.0700141 0)
(0.988521 -0.0701669 0)
(0.986257 -0.070184 0)
(0.984002 -0.0700713 0)
(0.981767 -0.0698355 0)
(0.979565 -0.069484 0)
(0.977404 -0.0690249 0)
(0.975292 -0.0684672 0)
(0.973237 -0.0678206 0)
(0.971245 -0.0670953 0)
(0.969324 -0.0663019 0)
(0.967479 -0.0654507 0)
(0.965715 -0.0645509 0)
(0.964032 -0.0636106 0)
(0.962426 -0.0626369 0)
(0.960887 -0.0616366 0)
(0.959409 -0.0606169 0)
(0.957993 -0.0595847 0)
(0.956641 -0.0585466 0)
(0.955357 -0.0575084 0)
(0.954144 -0.0564748 0)
(0.953001 -0.0554501 0)
(0.951927 -0.0544377 0)
(0.950919 -0.0534411 0)
(0.949974 -0.0524629 0)
(0.949088 -0.0515059 0)
(0.948257 -0.050572 0)
(0.94748 -0.0496634 0)
(0.946752 -0.0487817 0)
(1.01146 -0.000956932 0)
(1.01155 -0.003211 0)
(1.01174 -0.00513972 0)
(1.01198 -0.00720943 0)
(1.01231 -0.0091806 0)
(1.01269 -0.0111683 0)
(1.01311 -0.0131532 0)
(1.01359 -0.0151453 0)
(1.01409 -0.0171522 0)
(1.01462 -0.0191775 0)
(1.01517 -0.0212252 0)
(1.01572 -0.0232977 0)
(1.01627 -0.0253968 0)
(1.0168 -0.0275234 0)
(1.01731 -0.0296776 0)
(1.01778 -0.0318589 0)
(1.0182 -0.0340659 0)
(1.01856 -0.0362962 0)
(1.01884 -0.0385467 0)
(1.01903 -0.0408133 0)
(1.01912 -0.0430909 0)
(1.0191 -0.0453734 0)
(1.01896 -0.0476538 0)
(1.01868 -0.0499237 0)
(1.01826 -0.0521741 0)
(1.01769 -0.0543948 0)
(1.01696 -0.0565748 0)
(1.01606 -0.0587025 0)
(1.01501 -0.0607659 0)
(1.01378 -0.0627526 0)
(1.0124 -0.0646501 0)
(1.01085 -0.0664464 0)
(1.00916 -0.0681299 0)
(1.00731 -0.0696898 0)
(1.00534 -0.0711163 0)
(1.00324 -0.072401 0)
(1.00103 -0.0735369 0)
(0.998725 -0.074519 0)
(0.996341 -0.0753435 0)
(0.993894 -0.0760088 0)
(0.991398 -0.076515 0)
(0.98887 -0.0768639 0)
(0.986326 -0.0770592 0)
(0.983779 -0.0771061 0)
(0.981245 -0.0770115 0)
(0.978736 -0.0767835 0)
(0.976263 -0.0764311 0)
(0.973838 -0.075964 0)
(0.971469 -0.0753918 0)
(0.969163 -0.074724 0)
(0.966925 -0.0739694 0)
(0.964757 -0.0731368 0)
(0.962659 -0.0722357 0)
(0.960637 -0.071276 0)
(0.958698 -0.0702686 0)
(0.956852 -0.0692234 0)
(0.955106 -0.0681495 0)
(0.953463 -0.0670544 0)
(0.951915 -0.0659446 0)
(0.950454 -0.0648266 0)
(0.949073 -0.0637066 0)
(0.947766 -0.0625904 0)
(0.946531 -0.0614833 0)
(0.945365 -0.0603898 0)
(0.944265 -0.059314 0)
(0.943231 -0.0582591 0)
(0.942258 -0.0572281 0)
(0.941346 -0.0562234 0)
(0.94049 -0.0552473 0)
(1.01231 -0.000986248 0)
(1.01241 -0.00330091 0)
(1.01261 -0.00528561 0)
(1.01288 -0.00741498 0)
(1.01323 -0.00944251 0)
(1.01364 -0.0114897 0)
(1.01411 -0.0135348 0)
(1.01462 -0.0155889 0)
(1.01518 -0.0176599 0)
(1.01576 -0.0197521 0)
(1.01636 -0.0218698 0)
(1.01697 -0.024016 0)
(1.01759 -0.026193 0)
(1.01819 -0.0284025 0)
(1.01877 -0.0306452 0)
(1.01931 -0.0329215 0)
(1.01981 -0.0352306 0)
(1.02025 -0.0375713 0)
(1.02061 -0.0399413 0)
(1.02089 -0.0423376 0)
(1.02106 -0.0447559 0)
(1.02113 -0.0471912 0)
(1.02106 -0.0496372 0)
(1.02086 -0.0520863 0)
(1.0205 -0.0545299 0)
(1.01999 -0.0569583 0)
(1.01931 -0.0593604 0)
(1.01845 -0.0617244 0)
(1.01742 -0.0640377 0)
(1.0162 -0.0662868 0)
(1.01481 -0.068458 0)
(1.01323 -0.0705374 0)
(1.01148 -0.0725115 0)
(1.00955 -0.0743671 0)
(1.00747 -0.0760918 0)
(1.00525 -0.0776745 0)
(1.00288 -0.0791053 0)
(1.0004 -0.0803759 0)
(0.99781 -0.0814801 0)
(0.995135 -0.0824134 0)
(0.99239 -0.0831734 0)
(0.989593 -0.0837598 0)
(0.986762 -0.0841742 0)
(0.983915 -0.0844199 0)
(0.981068 -0.084502 0)
(0.978236 -0.0844268 0)
(0.975435 -0.0842017 0)
(0.972678 -0.0838355 0)
(0.969975 -0.0833383 0)
(0.967339 -0.0827214 0)
(0.964779 -0.0819976 0)
(0.962304 -0.0811801 0)
(0.959925 -0.0802818 0)
(0.957646 -0.0793142 0)
(0.955465 -0.078287 0)
(0.953374 -0.0772093 0)
(0.951363 -0.07609 0)
(0.949432 -0.0749389 0)
(0.947583 -0.0737654 0)
(0.945823 -0.072578 0)
(0.944156 -0.0713839 0)
(0.942585 -0.0701895 0)
(0.941105 -0.0690003 0)
(0.939715 -0.0678214 0)
(0.938409 -0.0666571 0)
(0.937184 -0.0655117 0)
(0.936035 -0.0643885 0)
(0.934958 -0.063291 0)
(0.933949 -0.0622218 0)
(1.01314 -0.00101201 0)
(1.01325 -0.00337906 0)
(1.01346 -0.00541279 0)
(1.01375 -0.0075944 0)
(1.01413 -0.00967126 0)
(1.01457 -0.011771 0)
(1.01508 -0.0138693 0)
(1.01563 -0.0159787 0)
(1.01624 -0.018107 0)