/*--------------------------------*- C++ -*----------------------------------*\
  =========                 |
  \\      /  F ield         | OpenFOAM: The Open Source CFD Toolbox
   \\    /   O peration     | Website:  https://openfoam.org
    \\  /    A nd           | Version:  10
     \\/     M anipulation  |
\*---------------------------------------------------------------------------*/
FoamFile
{
    format      ascii;
    class       volVectorField;
    location    "540";
    object      U;
}
// * * * * * * * * * * * * * * * * * * * * * * * * * * * * * * * * * * * * * //

dimensions      [0 1 -1 0 0 0 0];

internalField   nonuniform List<vector> 
66268
(
(1 -4.05971e-05 0)
(1 -0.000148769 0)
(1 -0.00023722 0)
(1 -0.000329989 0)
(1 -0.000420716 0)
(1 -0.000509974 0)
(1 -0.000598387 0)
(1 -0.000686023 0)
(1 -0.000772795 0)
(1 -0.000858569 0)
(1 -0.00094314 0)
(1 -0.00102623 0)
(1 -0.00110751 0)
(1 -0.0011866 0)
(1 -0.00126312 0)
(1 -0.00133665 0)
(1 -0.00140677 0)
(1 -0.00147308 0)
(1 -0.0015352 0)
(1 -0.0015928 0)
(1 -0.00164555 0)
(1 -0.00169321 0)
(1 -0.00173558 0)
(1 -0.00177252 0)
(1 -0.00180394 0)
(1 -0.00182982 0)
(1 -0.00185019 0)
(1 -0.00186515 0)
(1 -0.00187484 0)
(1 -0.00187943 0)
(1 -0.00187914 0)
(1 -0.00187422 0)
(1 -0.00186495 0)
(1 -0.00185163 0)
(1 -0.00183455 0)
(1 -0.00181405 0)
(1 -0.00179046 0)
(1 -0.00176409 0)
(1 -0.00173527 0)
(1 -0.0017043 0)
(1 -0.00167144 0)
(1 -0.00163694 0)
(1 -0.00160101 0)
(1 -0.00156384 0)
(0.999999 -0.00152564 0)
(0.999999 -0.0014866 0)
(0.999997 -0.00144693 0)
(0.999995 -0.00140688 0)
(0.999992 -0.00136674 0)
(0.999988 -0.00132681 0)
(0.999982 -0.00128745 0)
(0.999975 -0.00124896 0)
(0.999967 -0.00121159 0)
(0.999959 -0.00117547 0)
(0.999953 -0.00114062 0)
(0.999948 -0.00110697 0)
(0.999946 -0.00107442 0)
(0.999946 -0.00104287 0)
(0.999948 -0.00101223 0)
(0.999951 -0.000982486 0)
(0.999954 -0.000953625 0)
(0.999957 -0.000925667 0)
(0.999961 -0.000898641 0)
(0.999964 -0.000872574 0)
(0.999967 -0.000847489 0)
(0.999969 -0.000823395 0)
(0.999971 -0.000800295 0)
(0.999973 -0.00077822 0)
(0.999975 -0.000757195 0)
(1.00018 -0.000122511 0)
(1.00017 -0.00044211 0)
(1.00018 -0.000702837 0)
(1.00018 -0.000979238 0)
(1.00019 -0.00124847 0)
(1.00019 -0.00151315 0)
(1.0002 -0.00177552 0)
(1.0002 -0.00203559 0)
(1.00021 -0.00229313 0)
(1.00021 -0.00254778 0)
(1.00022 -0.00279897 0)
(1.00022 -0.0030459 0)
(1.00022 -0.00328762 0)
(1.00022 -0.00352305 0)
(1.00022 -0.00375105 0)
(1.00022 -0.00397041 0)
(1.00022 -0.00417992 0)
(1.00022 -0.0043784 0)
(1.00021 -0.00456473 0)
(1.0002 -0.00473788 0)
(1.00019 -0.00489695 0)
(1.00018 -0.00504116 0)
(1.00016 -0.00516991 0)
(1.00015 -0.00528275 0)
(1.00013 -0.00537942 0)
(1.00011 -0.0054598 0)
(1.00009 -0.00552398 0)
(1.00006 -0.00557218 0)
(1.00004 -0.00560479 0)
(1.00001 -0.00562232 0)
(0.999987 -0.00562543 0)
(0.999961 -0.00561485 0)
(0.999933 -0.00559143 0)
(0.999906 -0.00555607 0)
(0.999878 -0.0055097 0)
(0.99985 -0.00545328 0)
(0.999822 -0.00538776 0)
(0.999794 -0.00531406 0)
(0.999767 -0.0052331 0)
(0.99974 -0.00514581 0)
(0.999713 -0.0050531 0)
(0.999687 -0.00495591 0)
(0.999661 -0.00485516 0)
(0.999636 -0.00475174 0)
(0.999612 -0.00464648 0)
(0.999588 -0.00454009 0)
(0.999566 -0.00443318 0)
(0.999546 -0.00432621 0)
(0.999528 -0.00421946 0)
(0.999515 -0.00411305 0)
(0.999505 -0.00400699 0)
(0.999499 -0.00390126 0)
(0.999495 -0.00379591 0)
(0.999492 -0.00369119 0)
(0.999488 -0.00358748 0)
(0.999481 -0.0034853 0)
(0.999471 -0.00338518 0)
(0.999458 -0.00328756 0)
(0.999443 -0.00319276 0)
(0.999427 -0.00310098 0)
(0.99941 -0.00301229 0)
(0.999394 -0.00292673 0)
(0.999379 -0.00284424 0)
(0.999365 -0.0027648 0)
(0.999352 -0.00268833 0)
(0.999341 -0.00261479 0)
(0.99933 -0.00254412 0)
(0.999321 -0.00247629 0)
(0.999313 -0.00241134 0)
(1.00053 -0.000204549 0)
(1.00053 -0.000727682 0)
(1.00054 -0.00115426 0)
(1.00055 -0.00161115 0)
(1.00057 -0.0020539 0)
(1.00058 -0.00248928 0)
(1.0006 -0.00292131 0)
(1.00061 -0.00334964 0)
(1.00063 -0.00377404 0)
(1.00064 -0.00419407 0)
(1.00066 -0.00460881 0)
(1.00067 -0.00501704 0)
(1.00068 -0.00541727 0)
(1.00068 -0.00580781 0)
(1.00068 -0.00618684 0)
(1.00068 -0.00655241 0)
(1.00067 -0.00690258 0)
(1.00066 -0.00723541 0)
(1.00064 -0.00754906 0)
(1.00061 -0.00784182 0)
(1.00058 -0.00811216 0)
(1.00054 -0.00835876 0)
(1.0005 -0.00858055 0)
(1.00045 -0.0087767 0)
(1.0004 -0.0089467 0)
(1.00034 -0.00909029 0)
(1.00028 -0.0092075 0)
(1.00021 -0.00929861 0)
(1.00014 -0.00936418 0)
(1.00006 -0.00940497 0)
(0.999987 -0.00942196 0)
(0.999909 -0.00941629 0)
(0.99983 -0.00938923 0)
(0.99975 -0.00934214 0)
(0.99967 -0.00927648 0)
(0.999591 -0.00919374 0)
(0.999512 -0.00909547 0)
(0.999435 -0.00898323 0)
(0.999359 -0.00885859 0)
(0.999285 -0.0087231 0)
(0.999213 -0.00857819 0)
(0.999143 -0.00842519 0)
(0.999076 -0.00826533 0)
(0.999011 -0.00809967 0)
(0.998949 -0.00792923 0)
(0.998889 -0.00775494 0)
(0.998831 -0.00757773 0)
(0.998775 -0.00739857 0)
(0.998719 -0.00721847 0)
(0.998662 -0.00703854 0)
(0.998603 -0.00685994 0)
(0.998544 -0.00668374 0)
(0.998486 -0.00651081 0)
(0.99843 -0.00634167 0)
(0.998381 -0.00617653 0)
(0.998339 -0.00601534 0)
(0.998305 -0.00585798 0)
(0.998278 -0.00570434 0)
(0.998257 -0.0055544 0)
(0.99824 -0.00540827 0)
(0.998225 -0.0052661 0)
(0.998212 -0.00512809 0)
(0.998199 -0.00499442 0)
(0.998188 -0.00486525 0)
(0.998176 -0.00474069 0)
(0.998164 -0.0046208 0)
(0.998153 -0.00450562 0)
(0.998142 -0.00439517 0)
(0.998131 -0.00428947 0)
(1.00103 -0.000284013 0)
(1.00103 -0.00100081 0)
(1.00105 -0.00158761 0)
(1.00107 -0.0022193 0)
(1.00109 -0.00282863 0)
(1.00112 -0.00342892 0)
(1.00115 -0.00402515 0)
(1.00118 -0.00461664 0)
(1.00121 -0.00520339 0)
(1.00124 -0.00578494 0)
(1.00127 -0.00636015 0)
(1.00129 -0.00692747 0)
(1.00131 -0.007485 0)
(1.00132 -0.00803052 0)
(1.00132 -0.0085616 0)
(1.00132 -0.00907564 0)
(1.00131 -0.00957 0)
(1.00128 -0.010042 0)
(1.00125 -0.0104891 0)
(1.0012 -0.0109089 0)
(1.00114 -0.0112992 0)
(1.00108 -0.011658 0)
(1.001 -0.0119837 0)
(1.00091 -0.012275 0)
(1.0008 -0.012531 0)
(1.00069 -0.0127512 0)
(1.00058 -0.0129353 0)
(1.00045 -0.0130836 0)
(1.00032 -0.0131965 0)
(1.00018 -0.013275 0)
(1.00004 -0.0133201 0)
(0.999889 -0.0133333 0)
(0.999741 -0.0133161 0)
(0.999591 -0.0132704 0)
(0.99944 -0.0131979 0)
(0.99929 -0.0131009 0)
(0.999142 -0.0129814 0)
(0.998996 -0.0128414 0)
(0.998852 -0.012683 0)
(0.998711 -0.0125084 0)
(0.998574 -0.0123193 0)
(0.998441 -0.012118 0)
(0.998312 -0.0119061 0)
(0.998188 -0.0116858 0)
(0.998068 -0.0114588 0)
(0.997954 -0.0112268 0)
(0.997845 -0.0109914 0)
(0.997743 -0.010754 0)
(0.997649 -0.0105156 0)
(0.997565 -0.010277 0)
(0.997492 -0.0100385 0)
(0.997429 -0.00980055 0)
(0.997373 -0.00956359 0)
(0.997321 -0.0093283 0)
(0.997269 -0.00909566 0)
(0.997213 -0.00886679 0)
(0.997153 -0.00864279 0)
(0.99709 -0.00842454 0)
(0.997026 -0.00821264 0)
(0.996962 -0.00800742 0)
(0.996901 -0.00780902 0)
(0.996843 -0.00761746 0)
(0.996789 -0.00743267 0)
(0.996739 -0.00725457 0)
(0.996694 -0.00708308 0)
(0.996652 -0.00691811 0)
(0.996614 -0.00675956 0)
(0.996579 -0.0066074 0)
(0.996547 -0.00646161 0)
(1.00161 -0.000358108 0)
(1.00162 -0.00125545 0)
(1.00165 -0.00199512 0)
(1.00168 -0.00279169 0)
(1.00172 -0.00355765 0)
(1.00176 -0.00431444 0)
(1.00181 -0.00506684 0)
(1.00186 -0.00581407 0)
(1.00191 -0.00655662 0)
(1.00196 -0.00729405 0)
(1.002 -0.00802516 0)
(1.00204 -0.00874818 0)
(1.00207 -0.00946088 0)
(1.00209 -0.0101607 0)
(1.0021 -0.0108446 0)
(1.0021 -0.0115094 0)
(1.00208 -0.0121519 0)
(1.00205 -0.0127687 0)
(1.002 -0.0133566 0)
(1.00194 -0.0139123 0)
(1.00185 -0.0144329 0)
(1.00175 -0.0149158 0)
(1.00163 -0.0153586 0)
(1.0015 -0.0157595 0)
(1.00134 -0.0161169 0)
(1.00117 -0.0164299 0)
(1.00099 -0.0166979 0)
(1.0008 -0.0169208 0)
(1.00059 -0.0170989 0)
(1.00038 -0.0172331 0)
(1.00015 -0.0173245 0)
(0.999924 -0.0173747 0)
(0.999691 -0.0173855 0)
(0.999454 -0.017359 0)
(0.999216 -0.0172975 0)
(0.998979 -0.0172035 0)
(0.998742 -0.0170795 0)
(0.998509 -0.0169281 0)
(0.99828 -0.016752 0)
(0.998055 -0.0165536 0)
(0.997836 -0.0163358 0)
(0.997623 -0.0161008 0)
(0.997417 -0.0158512 0)
(0.997218 -0.0155891 0)
(0.997027 -0.0153165 0)
(0.996843 -0.0150353 0)
(0.996666 -0.0147471 0)
(0.996494 -0.0144538 0)
(0.996326 -0.0141571 0)
(0.99616 -0.0138588 0)
(0.995993 -0.013561 0)
(0.995826 -0.0132656 0)
(0.995664 -0.012974 0)
(0.995511 -0.0126872 0)
(0.995372 -0.0124057 0)
(0.99525 -0.0121296 0)
(0.995145 -0.0118586 0)
(0.995056 -0.0115929 0)
(0.994979 -0.0113326 0)
(0.994911 -0.011078 0)
(0.994848 -0.0108297 0)
(0.99479 -0.0105881 0)
(0.994734 -0.0103536 0)
(0.994681 -0.0101266 0)
(0.99463 -0.00990727 0)
(0.994581 -0.00969584 0)
(0.994534 -0.00949237 0)
(0.994489 -0.00929693 0)
(0.994447 -0.00910956 0)
(1.00227 -0.000426673 0)
(1.00228 -0.00149086 0)
(1.00232 -0.00237434 0)
(1.00236 -0.00332462 0)
(1.00242 -0.00423678 0)
(1.00248 -0.00514101 0)
(1.00255 -0.00604098 0)
(1.00262 -0.00693623 0)
(1.0027 -0.00782783 0)
(1.00277 -0.0087155 0)
(1.00284 -0.00959802 0)
(1.0029 -0.0104736 0)
(1.00295 -0.0113398 0)
(1.00298 -0.0121936 0)
(1.00301 -0.0130318 0)
(1.00301 -0.0138507 0)
(1.003 -0.0146463 0)
(1.00296 -0.0154147 0)
(1.0029 -0.0161519 0)
(1.00282 -0.0168538 0)
(1.00271 -0.0175169 0)
(1.00258 -0.0181376 0)
(1.00242 -0.0187128 0)
(1.00223 -0.0192399 0)
(1.00203 -0.0197167 0)
(1.0018 -0.0201414 0)
(1.00154 -0.0205131 0)
(1.00127 -0.020831 0)
(1.00099 -0.0210953 0)
(1.00069 -0.0213064 0)
(1.00037 -0.0214653 0)
(1.00005 -0.0215735 0)
(0.999715 -0.0216328 0)
(0.999377 -0.0216455 0)
(0.999037 -0.0216138 0)
(0.998696 -0.0215406 0)
(0.998356 -0.0214286 0)
(0.998018 -0.0212809 0)
(0.997685 -0.0211005 0)
(0.997358 -0.0208905 0)
(0.997038 -0.020654 0)
(0.996725 -0.020394 0)
(0.996421 -0.0201136 0)
(0.996126 -0.0198157 0)
(0.995841 -0.0195034 0)
(0.995567 -0.0191793 0)
(0.995304 -0.0188463 0)
(0.995055 -0.0185067 0)
(0.994822 -0.0181625 0)
(0.994608 -0.0178154 0)
(0.994415 -0.0174665 0)
(0.994243 -0.0171168 0)
(0.994086 -0.0167671 0)
(0.993938 -0.0164187 0)
(0.993791 -0.0160731 0)
(0.993641 -0.0157321 0)
(0.993486 -0.0153973 0)
(0.99333 -0.0150701 0)
(0.993175 -0.0147513 0)
(0.993025 -0.0144416 0)
(0.992883 -0.014141 0)
(0.99275 -0.0138498 0)
(0.992628 -0.0135678 0)
(0.992515 -0.0132953 0)
(0.992411 -0.0130321 0)
(0.992316 -0.0127782 0)
(0.992228 -0.0125337 0)
(0.992147 -0.0122985 0)
(0.992072 -0.0120727 0)
(1.00299 -0.000490925 0)
(1.00301 -0.0017095 0)
(1.00306 -0.00272701 0)
(1.00312 -0.00382064 0)
(1.00319 -0.00486969 0)
(1.00328 -0.00591305 0)
(1.00337 -0.00695288 0)
(1.00347 -0.0079894 0)
(1.00358 -0.00902433 0)
(1.00368 -0.0100576 0)
(1.00377 -0.0110882 0)
(1.00386 -0.0121142 0)
(1.00394 -0.0131333 0)
(1.004 -0.0141422 0)
(1.00404 -0.0151374 0)
(1.00406 -0.0161147 0)
(1.00406 -0.0170697 0)
(1.00403 -0.0179978 0)
(1.00396 -0.0188942 0)
(1.00387 -0.0197544 0)
(1.00374 -0.0205736 0)
(1.00358 -0.0213476 0)
(1.00338 -0.0220723 0)
(1.00315 -0.0227441 0)
(1.00289 -0.0233601 0)
(1.0026 -0.0239177 0)
(1.00228 -0.024415 0)
(1.00193 -0.0248507 0)
(1.00155 -0.0252242 0)
(1.00116 -0.0255354 0)
(1.00074 -0.0257851 0)
(1.00031 -0.0259743 0)
(0.999869 -0.0261048 0)
(0.999417 -0.0261788 0)
(0.99896 -0.0261988 0)
(0.998499 -0.0261678 0)
(0.998038 -0.0260891 0)
(0.997579 -0.0259661 0)
(0.997125 -0.0258025 0)
(0.996678 -0.0256019 0)
(0.996238 -0.025368 0)
(0.99581 -0.0251045 0)
(0.995393 -0.0248148 0)
(0.994988 -0.0245023 0)
(0.994598 -0.0241699 0)
(0.994222 -0.0238206 0)
(0.99386 -0.0234569 0)
(0.99351 -0.0230813 0)
(0.99317 -0.0226963 0)
(0.992837 -0.0223043 0)
(0.992507 -0.0219081 0)
(0.992182 -0.0215104 0)
(0.991867 -0.0211135 0)
(0.991569 -0.0207194 0)
(0.991296 -0.0203293 0)
(0.991054 -0.0199437 0)
(0.990841 -0.0195632 0)
(0.990653 -0.0191882 0)
(0.990486 -0.0188194 0)
(0.990333 -0.0184576 0)
(0.99019 -0.0181039 0)
(0.990054 -0.0177589 0)
(0.989925 -0.0174235 0)
(0.989801 -0.0170982 0)
(0.989682 -0.0167835 0)
(0.989569 -0.0164794 0)
(0.989461 -0.0161864 0)
(0.98936 -0.0159044 0)
(0.989263 -0.0156337 0)
(1.00377 -0.000551404 0)
(1.00379 -0.00191235 0)
(1.00386 -0.00305354 0)
(1.00393 -0.00428041 0)
(1.00403 -0.00545733 0)
(1.00414 -0.00663155 0)
(1.00427 -0.00780363 0)
(1.0044 -0.00897476 0)
(1.00454 -0.0101473 0)
(1.00468 -0.0113216 0)
(1.00481 -0.0124967 0)
(1.00494 -0.0136712 0)
(1.00505 -0.0148424 0)
(1.00514 -0.0160072 0)
(1.00521 -0.0171619 0)
(1.00526 -0.0183018 0)
(1.00527 -0.0194223 0)
(1.00525 -0.0205181 0)
(1.0052 -0.0215838 0)
(1.0051 -0.022614 0)
(1.00496 -0.0236032 0)
(1.00478 -0.0245461 0)
(1.00455 -0.0254377 0)
(1.00428 -0.0262735 0)
(1.00397 -0.0270493 0)
(1.00361 -0.0277615 0)
(1.00322 -0.0284073 0)
(1.00278 -0.0289845 0)
(1.00232 -0.0294915 0)
(1.00182 -0.0299276 0)
(1.0013 -0.0302928 0)
(1.00076 -0.0305878 0)
(1.00019 -0.0308139 0)
(0.999616 -0.0309729 0)
(0.999028 -0.0310674 0)
(0.998434 -0.0311001 0)
(0.997838 -0.0310742 0)
(0.997242 -0.0309933 0)
(0.996651 -0.0308609 0)
(0.996067 -0.0306808 0)
(0.995493 -0.030457 0)
(0.99493 -0.0301934 0)
(0.994381 -0.0298939 0)
(0.993847 -0.0295628 0)
(0.993329 -0.0292041 0)
(0.992829 -0.0288219 0)
(0.992348 -0.0284205 0)
(0.991887 -0.0280037 0)
(0.991452 -0.0275753 0)
(0.991045 -0.0271384 0)
(0.99067 -0.0266956 0)
(0.990327 -0.026249 0)
(0.990009 -0.0258001 0)
(0.989708 -0.0253506 0)
(0.989412 -0.0249025 0)
(0.989115 -0.024458 0)
(0.988817 -0.0240191 0)
(0.988521 -0.0235876 0)
(0.988232 -0.0231648 0)
(0.987957 -0.0227515 0)
(0.987697 -0.0223483 0)
(0.987456 -0.0219556 0)
(0.987233 -0.0215737 0)
(0.987026 -0.0212029 0)
(0.986836 -0.0208436 0)
(0.986659 -0.0204959 0)
(0.986496 -0.0201599 0)
(0.986345 -0.019836 0)
(0.986204 -0.0195243 0)
(1.00459 -0.000607517 0)
(1.00462 -0.00209782 0)
(1.0047 -0.00335149 0)
(1.0048 -0.00470056 0)
(1.00492 -0.0059952 0)
(1.00507 -0.00729079 0)
(1.00523 -0.00858624 0)
(1.0054 -0.00988395 0)
(1.00558 -0.0111869 0)
(1.00576 -0.0124959 0)
(1.00594 -0.0138104 0)
(1.0061 -0.0151291 0)
(1.00626 -0.0164498 0)
(1.00639 -0.0177692 0)
(1.0065 -0.0190834 0)
(1.00658 -0.0203879 0)
(1.00662 -0.0216775 0)
(1.00662 -0.0229465 0)
(1.00658 -0.0241889 0)
(1.00649 -0.0253986 0)
(1.00635 -0.0265692 0)
(1.00615 -0.0276945 0)
(1.0059 -0.0287684 0)
(1.0056 -0.0297852 0)
(1.00524 -0.0307396 0)
(1.00483 -0.0316269 0)
(1.00436 -0.0324429 0)
(1.00385 -0.0331843 0)
(1.00329 -0.0338485 0)
(1.0027 -0.0344338 0)
(1.00207 -0.0349392 0)
(1.0014 -0.0353645 0)
(1.00071 -0.0357103 0)
(0.999998 -0.0359782 0)
(0.999271 -0.0361701 0)
(0.998532 -0.0362888 0)
(0.997787 -0.0363376 0)
(0.99704 -0.0363201 0)
(0.996295 -0.0362407 0)
(0.995557 -0.036104 0)
(0.994828 -0.0359146 0)
(0.994111 -0.0356775 0)
(0.99341 -0.0353976 0)
(0.992727 -0.0350797 0)
(0.992063 -0.0347282 0)
(0.991421 -0.0343473 0)
(0.990801 -0.0339406 0)
(0.990202 -0.0335114 0)
(0.989623 -0.033063 0)
(0.98906 -0.0325984 0)
(0.988508 -0.0321208 0)
(0.987969 -0.0316336 0)
(0.987446 -0.0311403 0)
(0.98695 -0.0306443 0)
(0.98649 -0.0301482 0)
(0.986074 -0.0296538 0)
(0.985701 -0.0291626 0)
(0.985365 -0.0286761 0)
(0.985058 -0.0281956 0)
(0.984773 -0.0277226 0)
(0.984504 -0.0272585 0)
(0.984248 -0.0268045 0)
(0.984003 -0.0263618 0)
(0.98377 -0.0259313 0)
(0.983548 -0.0255134 0)
(0.983338 -0.0251089 0)
(0.983139 -0.0247179 0)
(0.982951 -0.0243409 0)
(0.982774 -0.023978 0)
(1.00545 -0.000658287 0)
(1.00549 -0.00226367 0)
(1.00558 -0.00361796 0)
(1.0057 -0.0050769 0)
(1.00585 -0.00647764 0)
(1.00603 -0.00788348 0)
(1.00623 -0.00929169 0)
(1.00645 -0.0107059 0)
(1.00667 -0.0121299 0)
(1.0069 -0.0135648 0)
(1.00712 -0.0150106 0)
(1.00734 -0.0164666 0)
(1.00754 -0.0179306 0)
(1.00773 -0.0193996 0)
(1.00788 -0.02087 0)
(1.008 -0.0223369 0)
(1.00808 -0.023795 0)
(1.00811 -0.0252383 0)
(1.0081 -0.0266604 0)
(1.00802 -0.0280545 0)
(1.00789 -0.0294134 0)
(1.00769 -0.03073 0)
(1.00743 -0.0319972 0)
(1.0071 -0.033208 0)
(1.00671 -0.034356 0)
(1.00625 -0.035435 0)
(1.00572 -0.0364397 0)
(1.00514 -0.0373652 0)
(1.00449 -0.0382077 0)
(1.0038 -0.038964 0)
(1.00306 -0.0396322 0)
(1.00227 -0.040211 0)
(1.00145 -0.0407002 0)
(1.0006 -0.0411004 0)
(0.999721 -0.0414132 0)
(0.998828 -0.0416408 0)
(0.997923 -0.0417864 0)
(0.997011 -0.0418533 0)
(0.996099 -0.0418455 0)
(0.995192 -0.0417674 0)
(0.994294 -0.0416234 0)
(0.993409 -0.0414182 0)
(0.99254 -0.0411565 0)
(0.991692 -0.0408435 0)
(0.990866 -0.0404841 0)
(0.990065 -0.0400839 0)
(0.989291 -0.0396484 0)
(0.988546 -0.0391834 0)
(0.987833 -0.0386946 0)
(0.987158 -0.0381871 0)
(0.986526 -0.0376657 0)
(0.985936 -0.037134 0)
(0.985385 -0.0365949 0)
(0.984861 -0.0360508 0)
(0.984354 -0.0355039 0)
(0.983853 -0.0349569 0)
(0.983357 -0.0344123 0)
(0.982871 -0.0338726 0)
(0.982402 -0.0333399 0)
(0.981956 -0.0328158 0)
(0.981537 -0.0323014 0)
(0.981145 -0.0317978 0)
(0.980782 -0.0313057 0)
(0.980445 -0.030826 0)
(0.980131 -0.0303594 0)
(0.97984 -0.0299064 0)
(0.979568 -0.0294675 0)
(0.979315 -0.0290431 0)
(0.979079 -0.0286337 0)
(1.00632 -0.000703196 0)
(1.00637 -0.00240902 0)
(1.00648 -0.003852 0)
(1.00662 -0.00540791 0)
(1.00681 -0.00690237 0)
(1.00702 -0.00840633 0)
(1.00726 -0.00991544 0)
(1.00752 -0.0114346 0)
(1.0078 -0.0129682 0)
(1.00808 -0.014518 0)
(1.00836 -0.0160847 0)
(1.00863 -0.0176679 0)
(1.00889 -0.0192659 0)
(1.00913 -0.0208762 0)
(1.00934 -0.022495 0)
(1.00951 -0.0241178 0)
(1.00964 -0.0257393 0)
(1.00972 -0.0273533 0)
(1.00974 -0.028953 0)
(1.0097 -0.0305311 0)
(1.00959 -0.0320799 0)
(1.0094 -0.0335914 0)
(1.00914 -0.0350576 0)
(1.0088 -0.0364703 0)
(1.00838 -0.0378218 0)
(1.00788 -0.0391047 0)
(1.00731 -0.040312 0)
(1.00666 -0.0414375 0)
(1.00594 -0.0424759 0)
(1.00515 -0.0434225 0)
(1.0043 -0.044274 0)
(1.00339 -0.0450278 0)
(1.00244 -0.0456825 0)
(1.00144 -0.0462378 0)
(1.00041 -0.0466941 0)
(0.999354 -0.0470531 0)
(0.998278 -0.0473172 0)
(0.99719 -0.0474897 0)
(0.996096 -0.0475745 0)
(0.995003 -0.0475763 0)
(0.993916 -0.0475006 0)
(0.992841 -0.047353 0)
(0.991781 -0.0471397 0)
(0.990742 -0.0468671 0)
(0.989728 -0.0465412 0)
(0.98874 -0.0461678 0)
(0.987783 -0.0457522 0)
(0.986856 -0.045299 0)
(0.985961 -0.0448123 0)
(0.985093 -0.044296 0)
(0.984249 -0.043754 0)
(0.983428 -0.0431907 0)
(0.982633 -0.0426107 0)
(0.981873 -0.042019 0)
(0.98116 -0.0414201 0)
(0.980503 -0.0408178 0)
(0.979903 -0.0402149 0)
(0.979354 -0.0396137 0)
(0.978846 -0.0390166 0)
(0.97837 -0.0384257 0)
(0.97792 -0.0378431 0)
(0.977493 -0.0372707 0)
(0.977085 -0.0367102 0)
(0.976698 -0.0361629 0)
(0.976331 -0.0356299 0)
(0.975984 -0.0351121 0)
(0.975656 -0.0346103 0)
(0.975347 -0.0341249 0)
(0.975057 -0.0336565 0)
(1.0072 -0.000742494 0)
(1.00726 -0.00253511 0)
(1.00739 -0.0040556 0)
(1.00756 -0.00569612 0)
(1.00777 -0.00727229 0)
(1.00802 -0.00886238 0)
(1.00831 -0.0104603 0)
(1.00862 -0.0120722 0)
(1.00895 -0.0137033 0)
(1.00928 -0.0153559 0)
(1.00962 -0.0170313 0)
(1.00996 -0.0187298 0)
(1.01029 -0.0204501 0)
(1.01059 -0.0221902 0)
(1.01087 -0.0239467 0)
(1.0111 -0.0257154 0)
(1.01129 -0.0274911 0)
(1.01142 -0.0292678 0)
(1.0115 -0.0310384 0)
(1.0115 -0.0327955 0)
(1.01142 -0.0345308 0)
(1.01126 -0.0362358 0)
(1.01102 -0.0379016 0)
(1.01068 -0.039519 0)
(1.01025 -0.0410792 0)
(1.00973 -0.0425734 0)
(1.00912 -0.0439931 0)
(1.00841 -0.0453308 0)
(1.00762 -0.0465793 0)
(1.00674 -0.0477324 0)
(1.00579 -0.0487852 0)
(1.00477 -0.0497334 0)
(1.00368 -0.0505741 0)
(1.00254 -0.0513057 0)
(1.00135 -0.0519275 0)
(1.00013 -0.0524401 0)
(0.998876 -0.0528451 0)
(0.997601 -0.0531453 0)
(0.996313 -0.0533443 0)
(0.995021 -0.0534461 0)
(0.993731 -0.0534556 0)
(0.992451 -0.053378 0)
(0.991187 -0.0532184 0)
(0.989945 -0.0529826 0)
(0.988729 -0.0526763 0)
(0.987544 -0.052306 0)
(0.986393 -0.0518783 0)
(0.985279 -0.0514007 0)
(0.984207 -0.0508807 0)
(0.98318 -0.0503258 0)
(0.982205 -0.0497432 0)
(0.981285 -0.049139 0)
(0.980419 -0.0485178 0)
(0.979597 -0.0478833 0)
(0.978806 -0.0472387 0)
(0.978035 -0.0465871 0)
(0.97728 -0.0459323 0)
(0.976544 -0.0452778 0)
(0.975837 -0.0446267 0)
(0.975164 -0.0439817 0)
(0.974531 -0.0433449 0)
(0.973938 -0.0427181 0)
(0.973385 -0.0421029 0)
(0.972868 -0.0415005 0)
(0.972387 -0.0409123 0)
(0.971937 -0.0403392 0)
(0.971517 -0.0397823 0)
(0.971124 -0.0392422 0)
(0.970756 -0.0387199 0)
(1.00807 -0.000776999 0)
(1.00815 -0.00264474 0)
(1.00829 -0.00423304 0)
(1.00848 -0.00594732 0)
(1.00873 -0.00759451 0)
(1.00903 -0.00925977 0)
(1.00936 -0.0109353 0)
(1.00972 -0.0126284 0)
(1.0101 -0.0143449 0)
(1.0105 -0.016088 0)
(1.0109 -0.0178596 0)
(1.01131 -0.0196604 0)
(1.0117 -0.0214901 0)
(1.01208 -0.023347 0)
(1.01243 -0.0252284 0)
(1.01273 -0.0271306 0)
(1.01299 -0.0290486 0)
(1.01319 -0.0309766 0)
(1.01333 -0.032908 0)
(1.01339 -0.0348351 0)
(1.01336 -0.0367495 0)
(1.01324 -0.0386422 0)
(1.01303 -0.0405038 0)
(1.01271 -0.0423245 0)
(1.01229 -0.0440941 0)
(1.01176 -0.0458028 0)
(1.01112 -0.0474408 0)
(1.01037 -0.0489988 0)
(1.00952 -0.0504681 0)
(1.00857 -0.0518408 0)
(1.00753 -0.0531099 0)
(1.0064 -0.0542696 0)
(1.00519 -0.0553151 0)
(1.00391 -0.0562431 0)
(1.00256 -0.0570515 0)
(1.00117 -0.0577395 0)
(0.999733 -0.0583076 0)
(0.998264 -0.0587573 0)
(0.996774 -0.0590914 0)
(0.995271 -0.0593138 0)
(0.993764 -0.0594292 0)
(0.992262 -0.0594435 0)
(0.990773 -0.0593632 0)
(0.989302 -0.0591957 0)
(0.987856 -0.0589486 0)
(0.986441 -0.0586298 0)
(0.985061 -0.0582463 0)
(0.983721 -0.0578046 0)
(0.982421 -0.0573105 0)
(0.981162 -0.0567689 0)
(0.979941 -0.0561847 0)
(0.978756 -0.0555629 0)
(0.977607 -0.0549096 0)
(0.976503 -0.0542313 0)
(0.975457 -0.0535348 0)
(0.97448 -0.0528259 0)
(0.973576 -0.0521092 0)
(0.972739 -0.0513886 0)
(0.97196 -0.0506674 0)
(0.971228 -0.0499489 0)
(0.970535 -0.0492362 0)
(0.969877 -0.0485321 0)
(0.969252 -0.0478393 0)
(0.968658 -0.0471597 0)
(0.968096 -0.0464954 0)
(0.967565 -0.0458476 0)
(0.967064 -0.0452177 0)
(0.966593 -0.0446066 0)
(0.96615 -0.0440153 0)
(1.00894 -0.000807692 0)
(1.00902 -0.00274117 0)
(1.00918 -0.00438925 0)
(1.0094 -0.00616827 0)
(1.00968 -0.00787748 0)
(1.01002 -0.00960845 0)
(1.01039 -0.0113516 0)
(1.01081 -0.0131154 0)
(1.01125 -0.0149064 0)
(1.01171 -0.0167283 0)
(1.01218 -0.0185837 0)
(1.01266 -0.0204742 0)
(1.01313 -0.0224 0)
(1.01358 -0.0243602 0)
(1.014 -0.0263527 0)
(1.01439 -0.0283743 0)
(1.01473 -0.0304209 0)
(1.01501 -0.0324871 0)
(1.01522 -0.0345665 0)
(1.01534 -0.0366518 0)
(1.01538 -0.0387348 0)
(1.01532 -0.0408062 0)
(1.01515 -0.0428564 0)
(1.01487 -0.0448749 0)
(1.01447 -0.046851 0)
(1.01395 -0.0487737 0)
(1.0133 -0.050632 0)
(1.01253 -0.0524152 0)
(1.01164 -0.0541128 0)
(1.01063 -0.0557153 0)
(1.00951 -0.0572136 0)
(1.00828 -0.0586 0)
(1.00696 -0.0598679 0)
(1.00554 -0.0610118 0)
(1.00405 -0.0620279 0)
(1.00248 -0.0629135 0)
(1.00086 -0.0636677 0)
(0.999199 -0.0642908 0)
(0.997498 -0.0647846 0)
(0.995775 -0.065152 0)
(0.994039 -0.0653973 0)
(0.992301 -0.0655254 0)
(0.990571 -0.0655418 0)
(0.988857 -0.0654524 0)
(0.987169 -0.0652636 0)
(0.985513 -0.0649819 0)
(0.983896 -0.0646147 0)
(0.982323 -0.0641704 0)
(0.980799 -0.0636581 0)
(0.979329 -0.0630875 0)
(0.97792 -0.0624684 0)
(0.976578 -0.06181 0)
(0.975305 -0.0611196 0)
(0.974096 -0.0604031 0)
(0.972938 -0.059665 0)
(0.971818 -0.0589097 0)
(0.970727 -0.0581419 0)
(0.96967 -0.0573667 0)
(0.968653 -0.0565888 0)
(0.967685 -0.0558124 0)
(0.966771 -0.0550407 0)
(0.965913 -0.0542766 0)
(0.965109 -0.0535227 0)
(0.964357 -0.052781 0)
(0.963653 -0.0520536 0)
(0.962993 -0.0513423 0)
(0.962376 -0.0506486 0)
(0.961797 -0.0499738 0)
(0.961255 -0.0493193 0)
(1.00979 -0.000835389 0)
(1.00988 -0.0028271 0)
(1.01006 -0.00452844 0)
(1.0103 -0.00636479 0)
(1.01062 -0.0081285 0)
(1.01099 -0.00991714 0)
(1.01142 -0.0117193 0)
(1.01188 -0.0135445 0)
(1.01238 -0.0153999 0)
(1.01291 -0.0172898 0)
(1.01345 -0.0192177 0)
(1.014 -0.0211856 0)
(1.01455 -0.0231946 0)
(1.01508 -0.0252445 0)
(1.01559 -0.0273341 0)
(1.01606 -0.029461 0)
(1.01649 -0.0316217 0)
(1.01685 -0.0338116 0)
(1.01714 -0.036025 0)
(1.01735 -0.038255 0)
(1.01746 -0.0404939 0)
(1.01747 -0.0427326 0)
(1.01736 -0.0449614 0)
(1.01713 -0.0471698 0)
(1.01677 -0.0493465 0)
(1.01628 -0.0514798 0)
(1.01565 -0.0535576 0)
(1.01487 -0.0555679 0)
(1.01396 -0.057499 0)
(1.01291 -0.0593392 0)
(1.01173 -0.0610779 0)
(1.01042 -0.0627051 0)
(1.00899 -0.064212 0)
(1.00745 -0.0655911 0)
(1.00581 -0.0668362 0)
(1.00409 -0.0679427 0)
(1.00229 -0.0689077 0)
(1.00042 -0.0697297 0)
(0.998509 -0.0704089 0)
(0.996559 -0.0709469 0)
(0.994585 -0.0713467 0)
(0.9926 -0.0716126 0)
(0.990614 -0.0717505 0)
(0.988639 -0.0717673 0)
(0.986685 -0.0716713 0)
(0.984759 -0.0714716 0)
(0.982869 -0.0711774 0)
(0.981023 -0.0707975 0)
(0.979225 -0.0703397 0)
(0.977479 -0.0698109 0)
(0.975784 -0.0692169 0)
(0.974139 -0.068564 0)
(0.972543 -0.067859 0)
(0.971003 -0.0671101 0)
(0.969532 -0.0663263 0)
(0.968143 -0.0655161 0)
(0.966846 -0.0646867 0)
(0.965637 -0.0638438 0)
(0.964506 -0.0629922 0)
(0.963441 -0.0621368 0)
(0.962432 -0.0612819 0)
(0.961475 -0.060432 0)
(0.960565 -0.0595907 0)
(0.959703 -0.0587615 0)
(0.958888 -0.0579471 0)
(0.958117 -0.0571498 0)
(0.957391 -0.0563716 0)
(0.956708 -0.0556143 0)
(0.956066 -0.0548794 0)
(1.01062 -0.000860619 0)
(1.01072 -0.00290435 0)
(1.01092 -0.00465348 0)
(1.01119 -0.00654091 0)
(1.01154 -0.00835271 0)
(1.01195 -0.0101921 0)
(1.01242 -0.0120457 0)
(1.01294 -0.013924 0)
(1.0135 -0.0158348 0)
(1.01409 -0.017783 0)
(1.0147 -0.0197727 0)
(1.01533 -0.0218066 0)
(1.01595 -0.0238866 0)
(1.01657 -0.0260133 0)
(1.01717 -0.0281864 0)
(1.01773 -0.0304043 0)
(1.01824 -0.0326646 0)
(1.0187 -0.0349634 0)
(1.01908 -0.0372961 0)
(1.01938 -0.0396564 0)
(1.01958 -0.0420374 0)
(1.01967 -0.0444305 0)
(1.01964 -0.0468264 0)
(1.01948 -0.0492147 0)
(1.01918 -0.0515839 0)
(1.01873 -0.053922 0)
(1.01813 -0.0562163 0)
(1.01737 -0.0584537 0)
(1.01646 -0.0606211 0)
(1.01539 -0.0627053 0)
(1.01417 -0.0646938 0)
(1.01279 -0.0665746 0)
(1.01128 -0.0683365 0)
(1.00963 -0.0699696 0)
(1.00786 -0.0714654 0)
(1.00599 -0.0728168 0)
(1.00401 -0.0740186 0)
(1.00195 -0.0750669 0)
(0.999826 -0.0759601 0)
(0.997647 -0.0766981 0)
(0.995428 -0.0772824 0)
(0.993184 -0.0777166 0)
(0.99093 -0.0780051 0)
(0.988678 -0.0781536 0)
(0.986442 -0.0781684 0)
(0.984231 -0.0780562 0)
(0.982058 -0.0778243 0)
(0.97993 -0.0774812 0)
(0.977856 -0.0770367 0)
(0.975843 -0.076502 0)
(0.973899 -0.0758894 0)
(0.972033 -0.0752112 0)
(0.970251 -0.0744785 0)
(0.968554 -0.0737002 0)
(0.96693 -0.0728832 0)
(0.965366 -0.0720333 0)
(0.96385 -0.0711568 0)
(0.962382 -0.0702607 0)
(0.96097 -0.0693517 0)
(0.959623 -0.068436 0)
(0.958349 -0.0675185 0)
(0.957149 -0.0666037 0)
(0.956022 -0.0656954 0)
(0.954965 -0.0647969 0)
(0.953973 -0.0639114 0)
(0.953043 -0.0630416 0)
(0.95217 -0.0621899 0)
(0.951352 -0.0613587 0)
(0.950585 -0.0605499 0)
(1.01142 -0.000883654 0)
(1.01154 -0.00297396 0)
(1.01175 -0.00476611 0)
(1.01205 -0.00669911 0)
(1.01243 -0.00855335 0)
(1.01288 -0.0104373 0)
(1.0134 -0.0123356 0)
(1.01397 -0.0142597 0)
(1.01459 -0.0162178 0)
(1.01524 -0.0182154 0)
(1.01593 -0.0202571 0)
(1.01663 -0.0223465 0)
(1.01733 -0.024486 0)
(1.01803 -0.0266773 0)
(1.01872 -0.0289209 0)
(1.01937 -0.0312163 0)
(1.01998 -0.033562 0)
(1.02054 -0.0359552 0)
(1.02102 -0.0383924 0)
(1.02142 -0.0408684 0)
(1.02172 -0.043377 0)
(1.0219 -0.0459108 0)
(1.02196 -0.048461 0)
(1.02189 -0.0510178 0)
(1.02166 -0.0535699 0)
(1.02128 -0.0561053 0)
(1.02073 -0.058611 0)
(1.02001 -0.0610732 0)
(1.01912 -0.0634778 0)
(1.01805 -0.0658103 0)
(1.01681 -0.0680564 0)
(1.01539 -0.070202 0)
(1.01381 -0.0722338 0)
(1.01208 -0.0741395 0)
(1.0102 -0.0759078 0)
(1.00818 -0.077529 0)
(1.00605 -0.078995 0)
(1.0038 -0.0802997 0)
(1.00147 -0.0814386 0)
(0.99906 -0.0824094 0)
(0.996595 -0.0832117 0)
(0.994088 -0.0838469 0)
(0.991557 -0.0843182 0)
(0.989016 -0.0846306 0)
(0.986481 -0.0847911 0)
(0.983964 -0.0848083 0)
(0.981477 -0.0846922 0)
(0.979031 -0.0844536 0)
(0.976636 -0.0841028 0)
(0.974298 -0.0836491 0)
(0.972022 -0.0831004 0)
(0.96981 -0.0824639 0)
(0.967661 -0.0817475 0)
(0.965579 -0.0809604 0)
(0.963576 -0.080114 0)
(0.96167 -0.0792199 0)
(0.959874 -0.0782886 0)
(0.958192 -0.0773285 0)
(0.956613 -0.0763468 0)
(0.955124 -0.07535 0)
(0.953713 -0.0743446 0)
(0.952374 -0.0733369 0)
(0.951103 -0.0723324 0)
(0.949898 -0.0713363 0)
(0.948758 -0.0703526 0)
(0.947682 -0.0693851 0)
(0.946667 -0.0684368 0)
(0.945713 -0.0675105 0)
(0.944816 -0.0666085 0)
(1.01221 -0.00090461 0)
(1.01233 -0.00303644 0)
(1.01256 -0.00486725 0)
(1.01288 -0.00684081 0)
(1.0133 -0.0087323 0)
(1.01379 -0.0106551 0)
(1.01435 -0.0125921 0)
(1.01497 -0.0145553 0)
(1.01565 -0.0165533 0)
(1.01636 -0.0185922 0)
(1.01711 -0.0206771 0)
(1.01789 -0.0228123 0)
(1.01867 -0.025001 0)
(1.01946 -0.0272457 0)
(1.02023 -0.0295477 0)
(1.02098 -0.0319076 0)
(1.02169 -0.0343251 0)
(1.02235 -0.0367988 0)
(1.02294 -0.0393259 0)
(1.02344 -0.0419029 0)
(1.02385 -0.0445247 0)
(1.02414 -0.047185 0)
(1.0243 -0.049876 0)
(1.02432 -0.0525888 0)
(1.02419 -0.0553128 0)
(1.02389 -0.0580364 0)
(1.02342 -0.0607465 0)
(1.02276 -0.0634293 0)
(1.02191 -0.0660698 0)
(1.02087 -0.0686527 0)
(1.01963 -0.0711621 0)
(1.0182 -0.0735822 0)
(1.01659 -0.0758977 0)
(1.01479 -0.0780935 0)
(1.01281 -0.0801557 0)
(1.01068 -0.0820718 0)
(1.0084 -0.0838306 0)
(1.00599 -0.0854228 0)
(1.00346 -0.0868411 0)
(1.00083 -0.0880802 0)
(0.998117 -0.0891371 0)
(0.995345 -0.0900111 0)
(0.99253 -0.0907034 0)
(0.98969 -0.0912175 0)
(0.986842 -0.0915582 0)
(0.984003 -0.0917317 0)
(0.981188 -0.0917447 0)
(0.978412 -0.0916051 0)
(0.975686 -0.0913222 0)
(0.973024 -0.0909074 0)
(0.970434 -0.0903743 0)
(0.96793 -0.0897384 0)
(0.965523 -0.0890146 0)
(0.963218 -0.0882164 0)
(0.961013 -0.0873539 0)
(0.958893 -0.0864354 0)
(0.956844 -0.0854688 0)
(0.95486 -0.0844632 0)
(0.952948 -0.0834282 0)
(0.951122 -0.0823726 0)
(0.949389 -0.0813041 0)
(0.947754 -0.0802291 0)
(0.946215 -0.0791532 0)
(0.94477 -0.0780816 0)
(0.943411 -0.077019 0)
(0.942136 -0.0759697 0)
(0.940938 -0.0749374 0)
(0.939815 -0.0739257 0)
(0.938761 -0.0729377 0)
(1.01297 -0.00092354 0)
(1.0131 -0.00309208 0)
(1.01335 -0.00495737 0)
(1.01369 -0.00696673 0)
(1.01414 -0.00889065 0)
(1.01466 -0.0108472 0)
(1.01527 -0.0128172 0)
(1.01594 -0.0148133 0)
(1.01667 -0.0168446 0)
(1.01745 -0.0189175 0)
(1.01826 -0.0210377 0)
(1.01911 -0.0232099 0)
(1.01997 -0.0254383 0)