/*--------------------------------*- C++ -*----------------------------------*\
  =========                 |
  \\      /  F ield         | OpenFOAM: The Open Source CFD Toolbox
   \\    /   O peration     | Website:  https://openfoam.org
    \\  /    A nd           | Version:  10
     \\/     M anipulation  |
\*---------------------------------------------------------------------------*/
FoamFile
{
    format      ascii;
    class       volVectorField;
    location    "60";
    object      U;
}
// * * * * * * * * * * * * * * * * * * * * * * * * * * * * * * * * * * * * * //

dimensions      [0 1 -1 0 0 0 0];

internalField   nonuniform List<vector> 
66268
(
(1 -2.95816e-05 0)
(1 -0.000108253 0)
(1 -0.000172552 0)
(1 -0.000240282 0)
(1 -0.000306788 0)
(1 -0.000372484 0)
(1 -0.000437891 0)
(1 -0.000503104 0)
(1 -0.00056807 0)
(1 -0.000632709 0)
(1 -0.000696873 0)
(1 -0.000760348 0)
(1 -0.000822873 0)
(1 -0.000884142 0)
(0.999999 -0.000943822 0)
(0.999999 -0.00100156 0)
(0.999999 -0.00105698 0)
(0.999999 -0.00110974 0)
(0.999999 -0.00115948 0)
(0.999999 -0.00120587 0)
(0.999999 -0.00124863 0)
(0.999998 -0.00128749 0)
(0.999998 -0.00132225 0)
(0.999998 -0.00135275 0)
(0.999998 -0.00137887 0)
(0.999998 -0.00140056 0)
(0.999998 -0.00141779 0)
(0.999997 -0.00143061 0)
(0.999997 -0.00143911 0)
(0.999997 -0.0014434 0)
(0.999997 -0.00144365 0)
(0.999997 -0.00144004 0)
(0.999997 -0.00143278 0)
(0.999997 -0.00142213 0)
(0.999997 -0.00140833 0)
(0.999997 -0.00139167 0)
(0.999997 -0.00137244 0)
(0.999997 -0.00135093 0)
(0.999996 -0.00132743 0)
(0.999996 -0.00130221 0)
(0.999996 -0.00127549 0)
(0.999996 -0.00124745 0)
(0.999995 -0.00121828 0)
(0.999995 -0.00118811 0)
(0.999995 -0.00115709 0)
(0.999994 -0.00112535 0)
(0.999993 -0.00109303 0)
(0.999992 -0.00106029 0)
(0.99999 -0.00102727 0)
(0.999987 -0.000994148 0)
(0.999984 -0.000961087 0)
(0.999981 -0.000928263 0)
(0.999977 -0.000895848 0)
(0.999974 -0.000863997 0)
(0.999973 -0.000832842 0)
(0.999972 -0.000802484 0)
(0.999972 -0.000772995 0)
(0.999973 -0.000744427 0)
(0.999975 -0.00071681 0)
(0.999977 -0.000690164 0)
(0.99998 -0.000664497 0)
(0.999982 -0.000639813 0)
(0.999984 -0.000616109 0)
(0.999986 -0.000593377 0)
(0.999988 -0.000571605 0)
(0.99999 -0.000550775 0)
(0.999991 -0.000530868 0)
(0.999992 -0.000511889 0)
(0.999993 -0.000493849 0)
(1.00013 -9.17573e-05 0)
(1.00012 -0.000330743 0)
(1.00013 -0.000525531 0)
(1.00013 -0.000733147 0)
(1.00014 -0.000936449 0)
(1.00014 -0.00113722 0)
(1.00014 -0.00133758 0)
(1.00015 -0.00153764 0)
(1.00015 -0.00173733 0)
(1.00016 -0.0019365 0)
(1.00016 -0.00213477 0)
(1.00017 -0.00233156 0)
(1.00017 -0.00252614 0)
(1.00017 -0.00271765 0)
(1.00018 -0.0029051 0)
(1.00018 -0.00308747 0)
(1.00018 -0.00326366 0)
(1.00017 -0.00343258 0)
(1.00017 -0.00359317 0)
(1.00016 -0.00374442 0)
(1.00016 -0.00388539 0)
(1.00015 -0.00401527 0)
(1.00014 -0.00413335 0)
(1.00012 -0.00423906 0)
(1.00011 -0.00433199 0)
(1.00009 -0.00441188 0)
(1.00008 -0.0044786 0)
(1.00006 -0.00453219 0)
(1.00004 -0.00457285 0)
(1.00002 -0.00460089 0)
(0.999998 -0.00461677 0)
(0.999975 -0.00462101 0)
(0.999953 -0.00461423 0)
(0.99993 -0.00459709 0)
(0.999907 -0.00457028 0)
(0.999883 -0.00453452 0)
(0.99986 -0.00449051 0)
(0.999837 -0.00443896 0)
(0.999815 -0.00438056 0)
(0.999792 -0.00431603 0)
(0.99977 -0.0042461 0)
(0.999749 -0.00417155 0)
(0.999727 -0.00409318 0)
(0.999706 -0.00401176 0)
(0.999686 -0.00392802 0)
(0.999666 -0.00384264 0)
(0.999647 -0.00375621 0)
(0.999628 -0.00366923 0)
(0.999611 -0.00358211 0)
(0.999595 -0.00349522 0)
(0.99958 -0.00340885 0)
(0.999567 -0.00332323 0)
(0.999556 -0.00323858 0)
(0.999544 -0.00315507 0)
(0.999533 -0.00307286 0)
(0.999522 -0.00299211 0)
(0.999511 -0.00291296 0)
(0.999499 -0.00283554 0)
(0.999488 -0.00275995 0)
(0.999476 -0.0026863 0)
(0.999465 -0.00261465 0)
(0.999455 -0.00254508 0)
(0.999445 -0.00247761 0)
(0.999436 -0.0024123 0)
(0.999427 -0.00234916 0)
(0.999419 -0.00228821 0)
(0.999412 -0.00222946 0)
(0.999405 -0.00217293 0)
(0.999399 -0.00211868 0)
(1.0004 -0.000158996 0)
(1.0004 -0.000564416 0)
(1.00041 -0.000894638 0)
(1.00042 -0.00125059 0)
(1.00043 -0.00159732 0)
(1.00045 -0.0019399 0)
(1.00046 -0.00228225 0)
(1.00048 -0.00262431 0)
(1.00049 -0.00296617 0)
(1.00051 -0.0033077 0)
(1.00052 -0.00364837 0)
(1.00054 -0.00398734 0)
(1.00055 -0.00432348 0)
(1.00056 -0.00465544 0)
(1.00057 -0.00498168 0)
(1.00057 -0.0053005 0)
(1.00057 -0.00561013 0)
(1.00057 -0.00590875 0)
(1.00056 -0.00619458 0)
(1.00054 -0.00646588 0)
(1.00052 -0.00672103 0)
(1.0005 -0.00695856 0)
(1.00047 -0.00717719 0)
(1.00043 -0.00737588 0)
(1.00039 -0.00755378 0)
(1.00035 -0.00771031 0)
(1.0003 -0.00784515 0)
(1.00025 -0.0079582 0)
(1.00019 -0.00804961 0)
(1.00013 -0.00811979 0)
(1.00007 -0.00816931 0)
(1 -0.00819888 0)
(0.999938 -0.00820937 0)
(0.999872 -0.00820173 0)
(0.999804 -0.00817704 0)
(0.999737 -0.00813647 0)
(0.99967 -0.0080813 0)
(0.999604 -0.00801284 0)
(0.999538 -0.00793249 0)
(0.999474 -0.00784161 0)
(0.999411 -0.00774152 0)
(0.999349 -0.00763341 0)
(0.999289 -0.00751837 0)
(0.999231 -0.00739738 0)
(0.999175 -0.00727132 0)
(0.999121 -0.007141 0)
(0.999068 -0.00700719 0)
(0.999018 -0.00687062 0)
(0.998969 -0.00673203 0)
(0.998923 -0.00659213 0)
(0.998878 -0.00645165 0)
(0.998835 -0.00631126 0)
(0.998794 -0.00617163 0)
(0.998756 -0.00603335 0)
(0.998721 -0.00589692 0)
(0.99869 -0.00576279 0)
(0.998661 -0.00563129 0)
(0.998636 -0.00550272 0)
(0.998613 -0.00537731 0)
(0.998591 -0.00525525 0)
(0.998572 -0.00513669 0)
(0.998554 -0.00502175 0)
(0.998537 -0.00491053 0)
(0.998521 -0.00480309 0)
(0.998505 -0.00469948 0)
(0.998491 -0.00459971 0)
(0.998477 -0.00450379 0)
(0.998464 -0.00441173 0)
(0.998452 -0.00432354 0)
(1.0008 -0.000228806 0)
(1.0008 -0.000803813 0)
(1.00082 -0.00127415 0)
(1.00084 -0.00178381 0)
(1.00086 -0.00227761 0)
(1.00089 -0.00276623 0)
(1.00092 -0.00325478 0)
(1.00095 -0.00374305 0)
(1.00098 -0.00423143 0)
(1.00101 -0.00471993 0)
(1.00104 -0.00520794 0)
(1.00107 -0.00569444 0)
(1.0011 -0.00617802 0)
(1.00112 -0.00665691 0)
(1.00114 -0.00712907 0)
(1.00115 -0.00759225 0)
(1.00115 -0.00804401 0)
(1.00114 -0.00848186 0)
(1.00113 -0.00890325 0)
(1.0011 -0.00930573 0)
(1.00107 -0.00968695 0)
(1.00102 -0.0100447 0)
(1.00097 -0.0103772 0)
(1.0009 -0.0106825 0)
(1.00083 -0.0109595 0)
(1.00075 -0.0112071 0)
(1.00065 -0.0114246 0)
(1.00055 -0.0116116 0)
(1.00045 -0.0117682 0)
(1.00034 -0.0118945 0)
(1.00022 -0.0119914 0)
(1.0001 -0.0120595 0)
(0.999973 -0.0121 0)
(0.999846 -0.0121143 0)
(0.999719 -0.0121037 0)
(0.999591 -0.01207 0)
(0.999463 -0.0120147 0)
(0.999336 -0.0119396 0)
(0.999211 -0.0118464 0)
(0.999088 -0.0117367 0)
(0.998968 -0.0116121 0)
(0.998851 -0.0114744 0)
(0.998738 -0.0113251 0)
(0.998628 -0.0111658 0)
(0.998522 -0.0109983 0)
(0.998419 -0.0108239 0)
(0.998321 -0.0106443 0)
(0.998227 -0.0104608 0)
(0.998137 -0.0102744 0)
(0.998051 -0.0100864 0)
(0.997971 -0.00989771 0)
(0.997895 -0.00970906 0)
(0.997824 -0.00952119 0)
(0.997758 -0.00933473 0)
(0.997695 -0.00915025 0)
(0.997635 -0.00896828 0)
(0.997578 -0.00878931 0)
(0.997523 -0.00861376 0)
(0.99747 -0.00844203 0)
(0.997419 -0.00827444 0)
(0.997372 -0.00811124 0)
(0.997327 -0.00795264 0)
(0.997284 -0.0077988 0)
(0.997244 -0.00764985 0)
(0.997207 -0.00750587 0)
(0.997172 -0.00736692 0)
(0.99714 -0.00723302 0)
(0.99711 -0.00710421 0)
(0.997081 -0.00698054 0)
(1.00129 -0.000296835 0)
(1.0013 -0.0010373 0)
(1.00132 -0.00164757 0)
(1.00135 -0.00230851 0)
(1.00139 -0.00294611 0)
(1.00143 -0.00357829 0)
(1.00148 -0.00421028 0)
(1.00153 -0.00484187 0)
(1.00158 -0.00547391 0)
(1.00163 -0.00610658 0)
(1.00168 -0.0067393 0)
(1.00173 -0.00737094 0)
(1.00177 -0.0079999 0)
(1.00181 -0.00862412 0)
(1.00184 -0.00924116 0)
(1.00186 -0.00984826 0)
(1.00187 -0.0104424 0)
(1.00186 -0.0110205 0)
(1.00184 -0.0115794 0)
(1.00181 -0.0121157 0)
(1.00176 -0.0126265 0)
(1.0017 -0.0131089 0)
(1.00161 -0.0135601 0)
(1.00152 -0.0139779 0)
(1.00141 -0.0143604 0)
(1.00128 -0.0147059 0)
(1.00114 -0.0150133 0)
(1.00098 -0.0152819 0)
(1.00082 -0.0155114 0)
(1.00065 -0.015702 0)
(1.00046 -0.0158543 0)
(1.00027 -0.0159691 0)
(1.00008 -0.0160476 0)
(0.999876 -0.0160914 0)
(0.999673 -0.0161022 0)
(0.999469 -0.0160816 0)
(0.999265 -0.0160319 0)
(0.999062 -0.015955 0)
(0.998861 -0.0158532 0)
(0.998664 -0.0157288 0)
(0.99847 -0.0155842 0)
(0.99828 -0.0154216 0)
(0.998095 -0.0152434 0)
(0.997915 -0.0150517 0)
(0.997741 -0.0148484 0)
(0.997572 -0.0146353 0)
(0.997409 -0.0144143 0)
(0.997252 -0.0141869 0)
(0.997101 -0.0139546 0)
(0.996956 -0.0137189 0)
(0.996817 -0.013481 0)
(0.996683 -0.0132423 0)
(0.996556 -0.0130037 0)
(0.996435 -0.0127665 0)
(0.996321 -0.0125313 0)
(0.996214 -0.0122989 0)
(0.996115 -0.01207 0)
(0.996023 -0.0118452 0)
(0.995937 -0.0116248 0)
(0.995857 -0.0114094 0)
(0.995783 -0.0111993 0)
(0.995713 -0.0109947 0)
(0.995647 -0.010796 0)
(0.995585 -0.0106034 0)
(0.995527 -0.0104171 0)
(0.995473 -0.0102372 0)
(0.995421 -0.0100636 0)
(0.995373 -0.00989665 0)
(0.995327 -0.00973625 0)
(1.00184 -0.000361118 0)
(1.00185 -0.00125819 0)
(1.00189 -0.00200314 0)
(1.00193 -0.00280757 0)
(1.00198 -0.00358103 0)
(1.00204 -0.00434925 0)
(1.00211 -0.00511674 0)
(1.00218 -0.00588344 0)
(1.00226 -0.00665073 0)
(1.00234 -0.00741904 0)
(1.00241 -0.00818784 0)
(1.00249 -0.00895599 0)
(1.00256 -0.00972182 0)
(1.00262 -0.0104831 0)
(1.00267 -0.0112371 0)
(1.0027 -0.0119807 0)
(1.00272 -0.0127104 0)
(1.00272 -0.0134226 0)
(1.00271 -0.0141135 0)
(1.00267 -0.0147792 0)
(1.00261 -0.015416 0)
(1.00253 -0.0160203 0)
(1.00242 -0.0165887 0)
(1.00229 -0.0171182 0)
(1.00214 -0.0176062 0)
(1.00197 -0.0180505 0)
(1.00178 -0.0184495 0)
(1.00156 -0.0188019 0)
(1.00133 -0.0191073 0)
(1.00109 -0.0193653 0)
(1.00083 -0.0195764 0)
(1.00056 -0.0197413 0)
(1.00028 -0.0198613 0)
(0.999988 -0.0199379 0)
(0.999695 -0.019973 0)
(0.999399 -0.0199688 0)
(0.999101 -0.0199278 0)
(0.998804 -0.0198524 0)
(0.998509 -0.0197455 0)
(0.998216 -0.0196097 0)
(0.997929 -0.0194477 0)
(0.997647 -0.0192621 0)
(0.997372 -0.0190557 0)
(0.997104 -0.0188308 0)
(0.996844 -0.0185902 0)
(0.996593 -0.0183362 0)
(0.99635 -0.0180712 0)
(0.996118 -0.0177976 0)
(0.995895 -0.0175172 0)
(0.995683 -0.0172321 0)
(0.995482 -0.0169439 0)
(0.995291 -0.016654 0)
(0.995111 -0.0163636 0)
(0.994941 -0.016074 0)
(0.994779 -0.0157861 0)
(0.994625 -0.0155008 0)
(0.994478 -0.0152192 0)
(0.994338 -0.0149421 0)
(0.994204 -0.0146701 0)
(0.994078 -0.0144039 0)
(0.993958 -0.0141441 0)
(0.993845 -0.013891 0)
(0.993739 -0.013645 0)
(0.99364 -0.0134064 0)
(0.993546 -0.0131754 0)
(0.993459 -0.0129521 0)
(0.993377 -0.0127367 0)
(0.993301 -0.0125292 0)
(0.99323 -0.0123297 0)
(1.00244 -0.000422395 0)
(1.00246 -0.00146693 0)
(1.00251 -0.00233898 0)
(1.00256 -0.00327824 0)
(1.00263 -0.00417898 0)
(1.00272 -0.00507461 0)
(1.00281 -0.0059684 0)
(1.00291 -0.0068606 0)
(1.00302 -0.00775317 0)
(1.00312 -0.00864676 0)
(1.00323 -0.00954095 0)
(1.00334 -0.0104347 0)
(1.00344 -0.0113264 0)
(1.00352 -0.0122138 0)
(1.0036 -0.0130939 0)
(1.00366 -0.0139635 0)
(1.0037 -0.0148188 0)
(1.00371 -0.0156557 0)
(1.0037 -0.0164701 0)
(1.00367 -0.0172574 0)
(1.0036 -0.0180134 0)
(1.0035 -0.0187339 0)
(1.00337 -0.0194148 0)
(1.00321 -0.0200523 0)
(1.00302 -0.0206433 0)
(1.0028 -0.0211849 0)
(1.00255 -0.0216748 0)
(1.00227 -0.0221112 0)
(1.00197 -0.0224931 0)
(1.00165 -0.0228199 0)
(1.0013 -0.0230916 0)
(1.00094 -0.0233088 0)
(1.00056 -0.0234727 0)
(1.00017 -0.0235848 0)
(0.99977 -0.0236472 0)
(0.999366 -0.0236622 0)
(0.998959 -0.0236324 0)
(0.998551 -0.0235607 0)
(0.998144 -0.0234499 0)
(0.997741 -0.0233033 0)
(0.997344 -0.0231239 0)
(0.996954 -0.022915 0)
(0.996572 -0.0226798 0)
(0.996201 -0.0224214 0)
(0.99584 -0.022143 0)
(0.995491 -0.0218473 0)
(0.995154 -0.0215372 0)
(0.99483 -0.021215 0)
(0.994518 -0.0208833 0)
(0.99422 -0.0205443 0)
(0.993933 -0.0202002 0)
(0.993658 -0.019853 0)
(0.993395 -0.0195046 0)
(0.993145 -0.0191566 0)
(0.992907 -0.0188105 0)
(0.992682 -0.0184675 0)
(0.992471 -0.0181288 0)
(0.992273 -0.0177951 0)
(0.992088 -0.0174674 0)
(0.991915 -0.0171463 0)
(0.991752 -0.0168324 0)
(0.991599 -0.0165263 0)
(0.991455 -0.0162283 0)
(0.99132 -0.0159391 0)
(0.991193 -0.0156587 0)
(0.991073 -0.0153876 0)
(0.990961 -0.0151258 0)
(0.990855 -0.0148736 0)
(0.990756 -0.0146309 0)
(1.00311 -0.00048213 0)
(1.00313 -0.00166704 0)
(1.00319 -0.00265923 0)
(1.00326 -0.0037265 0)
(1.00335 -0.00474767 0)
(1.00346 -0.00576346 0)
(1.00358 -0.00677573 0)
(1.00371 -0.00778516 0)
(1.00384 -0.00879426 0)
(1.00398 -0.00980388 0)
(1.00413 -0.0108138 0)
(1.00426 -0.0118232 0)
(1.00439 -0.0128305 0)
(1.00451 -0.0138336 0)
(1.00462 -0.0148295 0)
(1.0047 -0.0158149 0)
(1.00476 -0.016786 0)
(1.00479 -0.0177384 0)
(1.0048 -0.0186677 0)
(1.00476 -0.0195689 0)
(1.00469 -0.0204374 0)
(1.00458 -0.0212684 0)
(1.00443 -0.0220571 0)
(1.00424 -0.0227993 0)
(1.00401 -0.0234909 0)
(1.00374 -0.0241285 0)
(1.00343 -0.024709 0)
(1.00309 -0.02523 0)
(1.00271 -0.02569 0)
(1.00229 -0.0260877 0)
(1.00185 -0.0264227 0)
(1.00139 -0.0266953 0)
(1.00091 -0.0269063 0)
(1.0004 -0.027057 0)
(0.99989 -0.0271494 0)
(0.999366 -0.0271858 0)
(0.998836 -0.0271688 0)
(0.998304 -0.0271016 0)
(0.997773 -0.0269875 0)
(0.997245 -0.0268299 0)
(0.996723 -0.0266326 0)
(0.996209 -0.0263991 0)
(0.995706 -0.0261332 0)
(0.995215 -0.0258384 0)
(0.994737 -0.0255184 0)
(0.994275 -0.0251767 0)
(0.993827 -0.0248167 0)
(0.993397 -0.0244417 0)
(0.992984 -0.0240547 0)
(0.992589 -0.0236587 0)
(0.992212 -0.023256 0)
(0.991854 -0.022849 0)
(0.991515 -0.0224397 0)
(0.991193 -0.0220298 0)
(0.990886 -0.0216209 0)
(0.990595 -0.0212147 0)
(0.990317 -0.0208125 0)
(0.990051 -0.0204158 0)
(0.989799 -0.0200257 0)
(0.989559 -0.0196433 0)
(0.989332 -0.0192694 0)
(0.989118 -0.0189046 0)
(0.988917 -0.0185497 0)
(0.988728 -0.0182049 0)
(0.98855 -0.0178707 0)
(0.988384 -0.0175473 0)
(0.988229 -0.017235 0)
(0.988083 -0.0169338 0)
(0.987946 -0.0166441 0)
(1.00384 -0.000540987 0)
(1.00386 -0.00186111 0)
(1.00393 -0.00296838 0)
(1.00402 -0.00415886 0)
(1.00413 -0.00529531 0)
(1.00426 -0.00642583 0)
(1.0044 -0.00755068 0)
(1.00456 -0.00867099 0)
(1.00473 -0.00978978 0)
(1.00491 -0.0109081 0)
(1.00508 -0.012026 0)
(1.00525 -0.0131428 0)
(1.00542 -0.0142574 0)
(1.00557 -0.0153676 0)
(1.00571 -0.0164708 0)
(1.00582 -0.0175638 0)
(1.0059 -0.0186426 0)
(1.00596 -0.0197029 0)
(1.00597 -0.0207401 0)
(1.00594 -0.0217492 0)
(1.00587 -0.022725 0)
(1.00576 -0.0236623 0)
(1.00559 -0.024556 0)
(1.00537 -0.025401 0)
(1.0051 -0.0261928 0)
(1.00478 -0.026927 0)
(1.00441 -0.0276 0)
(1.004 -0.0282086 0)
(1.00354 -0.0287503 0)
(1.00304 -0.0292234 0)
(1.0025 -0.0296267 0)
(1.00193 -0.02996 0)
(1.00133 -0.0302235 0)
(1.00071 -0.0304184 0)
(1.00007 -0.0305463 0)
(0.999413 -0.0306096 0)
(0.998749 -0.030611 0)
(0.99808 -0.0305537 0)
(0.997409 -0.0304413 0)
(0.996741 -0.0302776 0)
(0.996078 -0.0300666 0)
(0.995425 -0.0298124 0)
(0.994783 -0.0295193 0)
(0.994155 -0.0291913 0)
(0.993544 -0.0288328 0)
(0.99295 -0.0284475 0)
(0.992376 -0.0280395 0)
(0.991822 -0.0276121 0)
(0.991289 -0.0271688 0)
(0.990776 -0.0267129 0)
(0.990284 -0.0262473 0)
(0.989812 -0.025775 0)
(0.989359 -0.0252987 0)
(0.988926 -0.0248211 0)
(0.988515 -0.0243444 0)
(0.988125 -0.0238706 0)
(0.987757 -0.0234014 0)
(0.987412 -0.0229381 0)
(0.987088 -0.0224819 0)
(0.986783 -0.0220339 0)
(0.986497 -0.0215952 0)
(0.986228 -0.0211665 0)
(0.985975 -0.0207487 0)
(0.985737 -0.0203423 0)
(0.985513 -0.019948 0)
(0.985302 -0.0195662 0)
(0.985103 -0.0191972 0)
(0.984917 -0.0188412 0)
(0.984742 -0.0184984 0)
(1.00461 -0.000598761 0)
(1.00464 -0.00204967 0)
(1.00472 -0.00326849 0)
(1.00482 -0.00457823 0)
(1.00495 -0.00582566 0)
(1.0051 -0.00706653 0)
(1.00528 -0.00829921 0)
(1.00547 -0.00952527 0)
(1.00567 -0.0107482 0)
(1.00587 -0.0119694 0)
(1.00609 -0.0131889 0)
(1.0063 -0.0144068 0)
(1.0065 -0.0156219 0)
(1.00669 -0.0168324 0)
(1.00685 -0.0180362 0)
(1.007 -0.01923 0)
(1.00711 -0.0204102 0)
(1.00719 -0.0215727 0)
(1.00722 -0.0227129 0)
(1.0072 -0.0238256 0)
(1.00713 -0.0249056 0)
(1.00701 -0.0259473 0)
(1.00683 -0.0269451 0)
(1.00659 -0.0278937 0)
(1.00628 -0.0287877 0)
(1.00592 -0.029622 0)
(1.00549 -0.0303922 0)
(1.00501 -0.0310943 0)
(1.00447 -0.031725 0)
(1.00388 -0.0322815 0)
(1.00324 -0.0327622 0)
(1.00256 -0.033166 0)
(1.00185 -0.0334926 0)
(1.0011 -0.0337426 0)
(1.00032 -0.0339173 0)
(0.999525 -0.0340186 0)
(0.998714 -0.0340491 0)
(0.997894 -0.0340119 0)
(0.99707 -0.0339106 0)
(0.996246 -0.033749 0)
(0.995427 -0.0335316 0)
(0.994617 -0.0332627 0)
(0.99382 -0.0329468 0)
(0.993039 -0.0325887 0)
(0.992276 -0.032193 0)
(0.991534 -0.0317642 0)
(0.990816 -0.031307 0)
(0.990122 -0.0308258 0)
(0.989453 -0.0303248 0)
(0.988812 -0.0298081 0)
(0.988199 -0.0292793 0)
(0.987615 -0.0287418 0)
(0.98706 -0.0281984 0)
(0.986532 -0.0276518 0)
(0.986031 -0.0271043 0)
(0.985553 -0.0265584 0)
(0.985097 -0.0260161 0)
(0.984662 -0.0254796 0)
(0.984247 -0.0249507 0)
(0.983854 -0.0244311 0)
(0.983481 -0.0239221 0)
(0.983129 -0.0234247 0)
(0.982798 -0.0229398 0)
(0.982486 -0.0224681 0)
(0.982194 -0.0220103 0)
(0.98192 -0.0215666 0)
(0.981663 -0.0211376 0)
(0.981422 -0.0207236 0)
(0.981196 -0.0203247 0)
(1.00541 -0.000655007 0)
(1.00545 -0.00223213 0)
(1.00554 -0.00355935 0)
(1.00565 -0.00498439 0)
(1.0058 -0.00633861 0)
(1.00598 -0.00768572 0)
(1.00618 -0.00902186 0)
(1.0064 -0.0103491 0)
(1.00663 -0.0116714 0)
(1.00687 -0.0129902 0)
(1.00712 -0.0143062 0)
(1.00737 -0.0156195 0)
(1.00761 -0.0169294 0)
(1.00783 -0.0182347 0)
(1.00804 -0.0195334 0)
(1.00821 -0.0208228 0)
(1.00836 -0.0220996 0)
(1.00846 -0.02336 0)
(1.00851 -0.0245995 0)
(1.00852 -0.0258133 0)
(1.00846 -0.026996 0)
(1.00834 -0.0281419 0)
(1.00815 -0.0292453 0)
(1.00789 -0.0303002 0)
(1.00756 -0.0313008 0)
(1.00715 -0.0322413 0)
(1.00667 -0.0331166 0)
(1.00613 -0.0339216 0)
(1.00551 -0.0346522 0)
(1.00483 -0.0353048 0)
(1.00409 -0.0358766 0)
(1.0033 -0.0363656 0)
(1.00246 -0.0367708 0)
(1.00158 -0.0370917 0)
(1.00066 -0.0373291 0)
(0.999717 -0.0374843 0)
(0.99875 -0.0375596 0)
(0.997769 -0.0375577 0)
(0.996778 -0.0374822 0)
(0.995786 -0.0373371 0)
(0.994796 -0.0371269 0)
(0.993814 -0.0368564 0)
(0.992845 -0.0365304 0)
(0.991893 -0.0361543 0)
(0.990962 -0.0357331 0)
(0.990055 -0.035272 0)
(0.989174 -0.0347761 0)
(0.988322 -0.03425 0)
(0.987499 -0.0336983 0)
(0.986707 -0.0331254 0)
(0.985945 -0.0325354 0)
(0.985212 -0.0319324 0)
(0.984509 -0.0313204 0)
(0.983835 -0.0307031 0)
(0.983192 -0.0300839 0)
(0.982582 -0.0294658 0)
(0.982005 -0.0288513 0)
(0.981463 -0.0282424 0)
(0.980954 -0.027641 0)
(0.980476 -0.0270487 0)
(0.980026 -0.0264669 0)
(0.979602 -0.0258969 0)
(0.979203 -0.0253402 0)
(0.978827 -0.0247976 0)
(0.978472 -0.0242701 0)
(0.978139 -0.0237584 0)
(0.977825 -0.0232632 0)
(0.97753 -0.0227847 0)
(0.977253 -0.0223236 0)
(1.00623 -0.000709391 0)
(1.00627 -0.00240774 0)
(1.00638 -0.00383987 0)
(1.0065 -0.00537593 0)
(1.00667 -0.00683265 0)
(1.00687 -0.00828182 0)
(1.0071 -0.00971709 0)
(1.00735 -0.011141 0)
(1.00761 -0.0125581 0)
(1.00789 -0.01397 0)
(1.00817 -0.0153775 0)
(1.00846 -0.0167814 0)
(1.00873 -0.0181814 0)
(1.009 -0.0195765 0)
(1.00924 -0.0209655 0)
(1.00945 -0.022346 0)
(1.00963 -0.0237154 0)
(1.00976 -0.0250703 0)
(1.00984 -0.0264067 0)
(1.00987 -0.0277199 0)
(1.00983 -0.0290049 0)
(1.00971 -0.0302561 0)
(1.00952 -0.0314675 0)
(1.00925 -0.0326331 0)
(1.0089 -0.0337464 0)
(1.00847 -0.0348012 0)
(1.00794 -0.0357914 0)
(1.00734 -0.0367114 0)
(1.00666 -0.0375557 0)
(1.00589 -0.0383197 0)
(1.00506 -0.0389995 0)
(1.00416 -0.039592 0)
(1.00319 -0.0400948 0)
(1.00218 -0.0405067 0)
(1.00112 -0.0408273 0)
(1.00002 -0.0410573 0)
(0.998888 -0.0411983 0)
(0.997736 -0.0412524 0)
(0.99657 -0.0412229 0)
(0.995396 -0.0411135 0)
(0.994222 -0.0409285 0)
(0.993054 -0.0406727 0)
(0.991897 -0.0403511 0)
(0.990758 -0.0399692 0)
(0.989641 -0.0395326 0)
(0.98855 -0.0390469 0)
(0.987488 -0.0385178 0)
(0.986459 -0.0379511 0)
(0.985464 -0.0373524 0)
(0.984507 -0.0367272 0)
(0.983588 -0.0360807 0)
(0.982709 -0.0354174 0)
(0.981873 -0.0347418 0)
(0.981077 -0.0340573 0)
(0.98032 -0.0333676 0)
(0.979599 -0.0326757 0)
(0.978911 -0.0319848 0)
(0.978253 -0.0312983 0)
(0.977625 -0.0306187 0)
(0.977028 -0.0299488 0)
(0.976463 -0.0292904 0)
(0.975928 -0.0286453 0)
(0.975424 -0.0280148 0)
(0.974951 -0.0274001 0)
(0.974506 -0.0268021 0)
(0.974089 -0.0262216 0)
(0.973698 -0.0256591 0)
(0.973331 -0.0251152 0)
(0.972987 -0.0245905 0)
(1.00707 -0.000761716 0)
(1.00712 -0.00257592 0)
(1.00723 -0.00410906 0)
(1.00738 -0.00575155 0)
(1.00757 -0.00730631 0)
(1.00779 -0.00885329 0)
(1.00804 -0.0103834 0)
(1.00832 -0.0118997 0)
(1.00861 -0.0134073 0)
(1.00892 -0.0149078 0)
(1.00924 -0.0164026 0)
(1.00956 -0.0178927 0)
(1.00987 -0.0193783 0)
(1.01017 -0.020859 0)
(1.01045 -0.0223341 0)
(1.01071 -0.0238019 0)
(1.01092 -0.0252605 0)
(1.01109 -0.026707 0)
(1.0112 -0.028138 0)
(1.01125 -0.0295496 0)
(1.01123 -0.0309369 0)
(1.01114 -0.0322947 0)
(1.01096 -0.0336172 0)
(1.01069 -0.0348981 0)
(1.01032 -0.0361309 0)
(1.00987 -0.0373087 0)
(1.00931 -0.0384249 0)
(1.00866 -0.0394728 0)
(1.00792 -0.0404459 0)
(1.00708 -0.0413386 0)
(1.00615 -0.0421454 0)
(1.00515 -0.0428621 0)
(1.00407 -0.043485 0)
(1.00292 -0.0440115 0)
(1.00172 -0.04444 0)
(1.00046 -0.0447701 0)
(0.999165 -0.0450021 0)
(0.997837 -0.0451376 0)
(0.996486 -0.045179 0)
(0.995121 -0.0451295 0)
(0.99375 -0.0449934 0)
(0.992381 -0.0447753 0)
(0.991022 -0.0444807 0)
(0.989679 -0.0441152 0)
(0.988358 -0.043685 0)
(0.987064 -0.0431962 0)
(0.985802 -0.042655 0)
(0.984576 -0.0420674 0)
(0.983389 -0.0414393 0)
(0.982242 -0.0407763 0)
(0.981135 -0.0400839 0)
(0.98007 -0.0393675 0)
(0.979044 -0.0386324 0)
(0.978059 -0.0378839 0)
(0.977117 -0.0371271 0)
(0.976221 -0.0363664 0)
(0.975373 -0.0356055 0)
(0.974574 -0.0348475 0)
(0.973823 -0.034095 0)
(0.973118 -0.0333503 0)
(0.972453 -0.0326157 0)
(0.971827 -0.0318934 0)
(0.971237 -0.0311852 0)
(0.97068 -0.030493 0)
(0.970155 -0.0298182 0)
(0.96966 -0.029162 0)
(0.969194 -0.0285254 0)
(0.968757 -0.0279092 0)
(0.968346 -0.0273142 0)
(1.00792 -0.000811902 0)
(1.00798 -0.00273638 0)
(1.0081 -0.00436621 0)
(1.00826 -0.00611032 0)
(1.00847 -0.00775861 0)
(1.00871 -0.00939909 0)
(1.00899 -0.0110197 0)
(1.00929 -0.0126244 0)
(1.00962 -0.0142183 0)
(1.00996 -0.0158034 0)
(1.01031 -0.0173814 0)
(1.01067 -0.0189536 0)
(1.01102 -0.0205208 0)
(1.01136 -0.0220833 0)
(1.01168 -0.0236407 0)
(1.01197 -0.0251923 0)
(1.01223 -0.0267369 0)
(1.01243 -0.0282723 0)
(1.01258 -0.0297959 0)
(1.01267 -0.0313046 0)
(1.01268 -0.0327941 0)
(1.01261 -0.0342597 0)
(1.01245 -0.0356959 0)
(1.01219 -0.0370967 0)
(1.01183 -0.0384553 0)
(1.01136 -0.0397647 0)
(1.01078 -0.0410176 0)
(1.0101 -0.0422065 0)
(1.0093 -0.0433241 0)
(1.0084 -0.0443633 0)
(1.0074 -0.0453176 0)
(1.0063 -0.0461809 0)
(1.00511 -0.0469483 0)
(1.00384 -0.0476153 0)
(1.00249 -0.048179 0)
(1.00108 -0.0486372 0)
(0.99962 -0.0489891 0)
(0.998112 -0.0492349 0)
(0.99657 -0.0493761 0)
(0.995006 -0.0494152 0)
(0.993428 -0.0493557 0)
(0.991847 -0.0492016 0)
(0.99027 -0.0489581 0)
(0.988707 -0.0486307 0)
(0.987165 -0.0482253 0)
(0.985651 -0.0477484 0)
(0.98417 -0.0472066 0)
(0.982726 -0.0466069 0)
(0.981326 -0.0459563 0)
(0.979971 -0.0452621 0)
(0.978666 -0.0445312 0)
(0.977415 -0.0437702 0)
(0.976219 -0.0429851 0)
(0.97508 -0.042181 0)
(0.973997 -0.0413626 0)
(0.972964 -0.0405344 0)
(0.971976 -0.0397008 0)
(0.971031 -0.0388664 0)
(0.970127 -0.0380354 0)
(0.969266 -0.0372117 0)
(0.968448 -0.0363985 0)
(0.967675 -0.0355982 0)
(0.966947 -0.0348132 0)
(0.966262 -0.034045 0)
(0.965618 -0.0332953 0)
(0.965014 -0.0325654 0)
(0.964447 -0.0318562 0)
(0.963915 -0.0311688 0)
(0.963417 -0.0305041 0)
(1.00878 -0.000859932 0)
(1.00884 -0.00288899 0)
(1.00897 -0.00461093 0)
(1.00914 -0.00645174 0)
(1.00937 -0.00818903 0)
(1.00963 -0.00991871 0)
(1.00993 -0.0116257 0)
(1.01027 -0.0133146 0)
(1.01062 -0.014991 0)
(1.011 -0.0166568 0)
(1.01138 -0.0183141 0)
(1.01177 -0.0199649 0)
(1.01216 -0.02161 0)
(1.01255 -0.0232505 0)
(1.01291 -0.0248868 0)
(1.01324 -0.0265188 0)
(1.01354 -0.0281461 0)
(1.01379 -0.0297677 0)
(1.01398 -0.0313817 0)
(1.01411 -0.0329858 0)
(1.01416 -0.0345768 0)
(1.01412 -0.0361507 0)
(1.01399 -0.0377025 0)
(1.01375 -0.0392265 0)
(1.0134 -0.0407163 0)
(1.01294 -0.0421647 0)
(1.01236 -0.0435641 0)
(1.01165 -0.0449063 0)
(1.01083 -0.0461832 0)
(1.00988 -0.0473865 0)
(1.00881 -0.0485083 0)
(1.00763 -0.0495408 0)
(1.00634 -0.0504774 0)
(1.00495 -0.0513119 0)
(1.00348 -0.0520394 0)
(1.00192 -0.052656 0)
(1.00029 -0.0531592 0)
(0.9986 -0.0535475 0)
(0.996866 -0.0538211 0)
(0.995097 -0.0539811 0)
(0.993304 -0.05403 0)
(0.9915 -0.0539714 0)
(0.989693 -0.0538098 0)
(0.987895 -0.0535509 0)
(0.986115 -0.053201 0)
(0.98436 -0.0527668 0)
(0.982639 -0.0522557 0)
(0.980958 -0.0516748 0)
(0.979321 -0.0510314 0)
(0.977734 -0.0503326 0)
(0.976199 -0.0495852 0)
(0.974716 -0.0487959 0)
(0.973285 -0.0479718 0)
(0.971906 -0.0471198 0)
(0.970582 -0.046247 0)
(0.969319 -0.0453602 0)
(0.968121 -0.0444647 0)
(0.966991 -0.0435653 0)
(0.965929 -0.0426657 0)
(0.96493 -0.0417693 0)
(0.963989 -0.0408796 0)
(0.963101 -0.0399998 0)
(0.962262 -0.0391331 0)
(0.961471 -0.0382822 0)
(0.960724 -0.0374494 0)
(0.960019 -0.0366368 0)
(0.959356 -0.0358461 0)
(0.958733 -0.0350786 0)
(0.958147 -0.0343355 0)
(1.00964 -0.000905753 0)
(1.0097 -0.00303367 0)
(1.00985 -0.00484304 0)
(1.01003 -0.0067756 0)
(1.01027 -0.00859738 0)
(1.01056 -0.010412 0)
(1.01088 -0.0122012 0)
(1.01124 -0.0139704 0)
(1.01162 -0.0157255 0)
(1.01203 -0.0174684 0)
(1.01245 -0.0192016 0)
(1.01288 -0.0209272 0)
(1.0133 -0.0226469 0)
(1.01373 -0.024362 0)
(1.01413 -0.0260736 0)
(1.01451 -0.0277826 0)
(1.01485 -0.0294894 0)
(1.01515 -0.0311939 0)
(1.01539 -0.0328955 0)
(1.01556 -0.0345928 0)
(1.01565 -0.0362837 0)
(1.01566 -0.037965 0)
(1.01556 -0.0396328 0)
(1.01536 -0.0412819 0)
(1.01504 -0.0429065 0)
(1.0146 -0.0444995 0)
(1.01403 -0.0460532 0)
(1.01332 -0.0475591 0)
(1.01248 -0.0490083 0)
(1.0115 -0.0503914 0)
(1.01039 -0.0516992 0)
(1.00914 -0.0529224 0)
(1.00777 -0.0540525 0)
(1.00628 -0.0550814 0)
(1.00468 -0.056002 0)
(1.00299 -0.0568084 0)
(1.0012 -0.0574958 0)
(0.999338 -0.0580609 0)
(0.997413 -0.0585017 0)
(0.995438 -0.0588179 0)
(0.993426 -0.0590104 0)
(0.991391 -0.0590815 0)
(0.989344 -0.0590348 0)
(0.987298 -0.058875 0)
(0.985264 -0.0586077 0)
(0.983252 -0.0582391 0)
(0.981272 -0.0577762 0)
(0.979332 -0.0572269 0)
(0.977438 -0.0565993 0)
(0.975597 -0.0559022 0)
(0.973816 -0.0551448 0)
(0.972099 -0.0543358 0)
(0.970452 -0.0534836 0)
(0.96888 -0.0525957 0)
(0.967382 -0.0516783 0)
(0.965952 -0.0507375 0)
(0.964584 -0.0497792 0)
(0.963272 -0.0488097 0)
(0.962014 -0.0478354 0)
(0.960812 -0.0468621 0)
(0.95967 -0.0458946 0)
(0.958589 -0.0449368 0)
(0.957569 -0.0439921 0)
(0.95661 -0.0430631 0)
(0.955709 -0.0421524 0)
(0.954863 -0.041262 0)
(0.954069 -0.0403938 0)
(0.953324 -0.0395495 0)
(0.952626 -0.0387305 0)
(1.01049 -0.000949245 0)
(1.01056 -0.00317025 0)
(1.01072 -0.00506241 0)
(1.01091 -0.0070818 0)
(1.01117 -0.00898357 0)
(1.01148 -0.0108789 0)
(1.01182 -0.0127463 0)
(1.01221 -0.014592 0)
(1.01262 -0.0164221 0)
(1.01305 -0.0182385 0)
(1.01351 -0.0200441 0)
(1.01397 -0.0218413 0)
(1.01443 -0.0236319 0)
(1.01489 -0.0254181 0)
(1.01534 -0.0272016 0)
(1.01576 -0.028984 0)
(1.01615 -0.0307667 0)
(1.0165 -0.0325506 0)
(1.01679 -0.0343363 0)
(1.01701 -0.0361235 0)
(1.01716 -0.0379113 0)
(1.01722 -0.0396979 0)
(1.01717 -0.0414803 0)
(1.01702 -0.0432545 0)
(1.01674 -0.0450151 0)
(1.01633 -0.0467558 0)
(1.01579 -0.048469 0)
(1.0151 -0.0501461 0)
(1.01426 -0.0517778 0)
(1.01327 -0.0533539 0)
(1.01213 -0.054864 0)
(1.01085 -0.0562974 0)
(1.00941 -0.0576436 0)
(1.00784 -0.0588925 0)
(1.00614 -0.0600349 0)
(1.00432 -0.0610622 0)
(1.00239 -0.0619673 0)
(1.00036 -0.0627445 0)
(0.99825 -0.0633894 0)
(0.996071 -0.0638995 0)
(0.993839 -0.0642737 0)
(0.991568 -0.0645129 0)
(0.989273 -0.0646193 0)
(0.986968 -0.0645966 0)
(0.984665 -0.0644502 0)
(0.982379 -0.0641865 0)
(0.980119 -0.063813 0)
(0.977897 -0.063338 0)
(0.975721 -0.0627697 0)
(0.9736 -0.0621167 0)
(0.971539 -0.0613872 0)
(0.96954 -0.0605893 0)
(0.967606 -0.0597314 0)
(0.965735 -0.0588223 0)
(0.963932 -0.0578715 0)
(0.962204 -0.0568884 0)
(0.96056 -0.0558815 0)
(0.959006 -0.0548577 0)
(0.957545 -0.0538225 0)
(0.956169 -0.0527811 0)
(0.954873 -0.0517385 0)
(0.953649 -0.0506995 0)
(0.952491 -0.049669 0)
(0.951397 -0.0486514 0)
(0.950363 -0.0476503 0)
(0.949389 -0.0466691 0)
(0.948471 -0.0457105 0)
(0.947607 -0.0447767 0)
(0.946796 -0.0438697 0)
(1.01134 -0.000990297 0)
(1.01142 -0.00329857 0)
(1.01158 -0.0052689 0)
(1.01179 -0.00737017 0)
(1.01206 -0.00934739 0)
(1.01239 -0.0113191 0)
(1.01275 -0.0132607 0)
(1.01316 -0.0151791 0)
(1.0136 -0.0170804 0)
(1.01407 -0.0189669 0)
(1.01455 -0.0208415 0)
(1.01505 -0.0227067 0)
(1.01555 -0.024565 0)
(1.01605 -0.0264188 0)
(1.01654 -0.0282705 0)
(1.01701 -0.0301224 0)
(1.01744 -0.0319769 0)
(1.01784 -0.0338361 0)
(1.01819 -0.0357015 0)
(1.01847 -0.0375744 0)
(1.01867 -0.0394551 0)
(1.01879 -0.0413432 0)
(1.01881 -0.043237 0)
(1.01871 -0.0451338 0)
(1.01849 -0.0470293 0)
(1.01813 -0.0489179 0)
(1.01763 -0.0507928 0)
(1.01698 -0.0526457 0)
(1.01617 -0.0544669 0)
(1.01519 -0.0562459 0)
(1.01405 -0.0579714 0)
(1.01274 -0.0596314 0)
(1.01127 -0.0612136 0)
(1.00964 -0.062706 0)
(1.00786 -0.0640968 0)
(1.00593 -0.0653751 0)
(1.00387 -0.066531 0)
(1.00169 -0.0675559 0)
(0.999409 -0.0684428 0)
(0.997034 -0.0691863 0)
(0.994585 -0.069783 0)
(0.992079 -0.0702313 0)
(0.989531 -0.0705313 0)
(0.986958 -0.0706852 0)
(0.984376 -0.0706964 0)
(0.9818 -0.0705698 0)
(0.979244 -0.0703117 0)
(0.976721 -0.0699293 0)
(0.974242 -0.0694312 0)
(0.971817 -0.0688272 0)
(0.969456 -0.0681278 0)
(0.967168 -0.0673446 0)
(0.964963 -0.066489 0)
(0.962849 -0.0655715 0)
(0.960829 -0.064601 0)
(0.958899 -0.0635855 0)
(0.95705 -0.0625328 0)
(0.955273 -0.0614511 0)
(0.953564 -0.0603495 0)
(0.951928 -0.0592365 0)
(0.950369 -0.0581194 0)
(0.948892 -0.0570042 0)
(0.947499 -0.055896 0)
(0.946187 -0.0547989 0)
(0.944955 -0.0537169 0)
(0.943798 -0.0526534 0)
(0.942713 -0.0516114 0)
(0.941695 -0.0505937 0)
(0.94074 -0.0496029 0)
(1.01218 -0.00102886 0)
(1.01226 -0.00341853 0)