/*--------------------------------*- C++ -*----------------------------------*\
  =========                 |
  \\      /  F ield         | OpenFOAM: The Open Source CFD Toolbox
   \\    /   O peration     | Website:  https://openfoam.org
    \\  /    A nd           | Version:  10
     \\/     M anipulation  |
\*---------------------------------------------------------------------------*/
FoamFile
{
    format      ascii;
    class       volVectorField;
    location    "600";
    object      U;
}
// * * * * * * * * * * * * * * * * * * * * * * * * * * * * * * * * * * * * * //

dimensions      [0 1 -1 0 0 0 0];

internalField   nonuniform List<vector> 
66268
(
(1 -4.32238e-05 0)
(1 -0.00015863 0)
(1 -0.000253454 0)
(1 -0.000353363 0)
(1 -0.000451793 0)
(1 -0.00054948 0)
(1 -0.00064714 0)
(1 -0.00074489 0)
(1 -0.000842657 0)
(1 -0.0009403 0)
(1 -0.00103758 0)
(1 -0.00113416 0)
(1 -0.00122966 0)
(1 -0.00132361 0)
(1 -0.00141553 0)
(1 -0.0015049 0)
(1 -0.00159122 0)
(1 -0.00167397 0)
(1 -0.00175267 0)
(1 -0.00182687 0)
(1 -0.00189617 0)
(1 -0.0019602 0)
(1 -0.00201869 0)
(1 -0.00207141 0)
(1 -0.00211821 0)
(1 -0.00215899 0)
(1 -0.00219374 0)
(1 -0.0022225 0)
(1 -0.00224537 0)
(1 -0.0022625 0)
(1 -0.00227411 0)
(1 -0.00228044 0)
(1 -0.00228176 0)
(1 -0.0022784 0)
(1 -0.00227066 0)
(1 -0.0022589 0)
(1 -0.00224344 0)
(1 -0.00222462 0)
(1 -0.00220277 0)
(1 -0.00217818 0)
(1 -0.00215114 0)
(1 -0.0021219 0)
(1 -0.00209073 0)
(1 -0.00205784 0)
(1 -0.00202348 0)
(1 -0.00198789 0)
(1 -0.00195136 0)
(0.999997 -0.00191418 0)
(0.999992 -0.00187671 0)
(0.999984 -0.00183933 0)
(0.999974 -0.0018024 0)
(0.999963 -0.00176622 0)
(0.999952 -0.00173093 0)
(0.999943 -0.00169659 0)
(0.999937 -0.00166312 0)
(0.999935 -0.00163042 0)
(0.999935 -0.0015984 0)
(0.999939 -0.00156702 0)
(0.999943 -0.00153628 0)
(0.999949 -0.00150623 0)
(0.999954 -0.00147694 0)
(0.99996 -0.00144847 0)
(0.999965 -0.00142088 0)
(0.999969 -0.00139424 0)
(0.999972 -0.00136858 0)
(0.999975 -0.00134392 0)
(0.999978 -0.00132025 0)
(0.99998 -0.00129763 0)
(0.999981 -0.00127607 0)
(1.00019 -0.000128985 0)
(1.00018 -0.000466058 0)
(1.00019 -0.000742149 0)
(1.0002 -0.00103598 0)
(1.0002 -0.00132401 0)
(1.00021 -0.00160925 0)
(1.00022 -0.00189422 0)
(1.00022 -0.00217898 0)
(1.00023 -0.00246333 0)
(1.00024 -0.00274686 0)
(1.00025 -0.0030289 0)
(1.00026 -0.00330848 0)
(1.00026 -0.00358446 0)
(1.00027 -0.00385554 0)
(1.00027 -0.00412034 0)
(1.00027 -0.00437738 0)
(1.00027 -0.00462519 0)
(1.00027 -0.00486231 0)
(1.00027 -0.00508737 0)
(1.00026 -0.00529908 0)
(1.00025 -0.00549628 0)
(1.00024 -0.00567799 0)
(1.00023 -0.00584338 0)
(1.00021 -0.00599183 0)
(1.00019 -0.00612289 0)
(1.00018 -0.00623634 0)
(1.00015 -0.00633212 0)
(1.00013 -0.00641039 0)
(1.00011 -0.00647145 0)
(1.00008 -0.00651578 0)
(1.00005 -0.00654398 0)
(1.00002 -0.00655678 0)
(0.999995 -0.006555 0)
(0.999966 -0.00653954 0)
(0.999936 -0.00651132 0)
(0.999906 -0.00647132 0)
(0.999876 -0.00642051 0)
(0.999846 -0.0063599 0)
(0.999816 -0.00629051 0)
(0.999786 -0.00621336 0)
(0.999757 -0.0061295 0)
(0.999728 -0.00603993 0)
(0.999699 -0.00594568 0)
(0.999671 -0.0058477 0)
(0.999644 -0.00574688 0)
(0.999618 -0.005644 0)
(0.999594 -0.00553971 0)
(0.999573 -0.00543454 0)
(0.999556 -0.00532881 0)
(0.999545 -0.00522274 0)
(0.999538 -0.00511647 0)
(0.999535 -0.00501016 0)
(0.999531 -0.00490412 0)
(0.999526 -0.00479878 0)
(0.999517 -0.00469467 0)
(0.999503 -0.00459232 0)
(0.999485 -0.00449219 0)
(0.999464 -0.00439459 0)
(0.999442 -0.00429972 0)
(0.99942 -0.00420766 0)
(0.999398 -0.00411844 0)
(0.999379 -0.00403206 0)
(0.99936 -0.00394849 0)
(0.999344 -0.0038677 0)
(0.99933 -0.0037897 0)
(0.999317 -0.00371445 0)
(0.999305 -0.00364194 0)
(0.999295 -0.00357218 0)
(0.999286 -0.00350524 0)
(1.00056 -0.000213526 0)
(1.00056 -0.000760331 0)
(1.00058 -0.00120756 0)
(1.00059 -0.00168817 0)
(1.00061 -0.00215632 0)
(1.00063 -0.00261942 0)
(1.00065 -0.00308177 0)
(1.00067 -0.0035431 0)
(1.00069 -0.00400315 0)
(1.00072 -0.00446134 0)
(1.00074 -0.00491659 0)
(1.00076 -0.0053674 0)
(1.00077 -0.00581198 0)
(1.00079 -0.0062483 0)
(1.00079 -0.00667416 0)
(1.0008 -0.00708725 0)
(1.00079 -0.00748523 0)
(1.00079 -0.00786581 0)
(1.00077 -0.00822679 0)
(1.00075 -0.00856611 0)
(1.00072 -0.00888193 0)
(1.00069 -0.00917265 0)
(1.00065 -0.00943694 0)
(1.0006 -0.00967378 0)
(1.00054 -0.00988246 0)
(1.00048 -0.0100626 0)
(1.00042 -0.010214 0)
(1.00035 -0.0103371 0)
(1.00028 -0.0104321 0)
(1.0002 -0.0105 0)
(1.00012 -0.0105416 0)
(1.00004 -0.0105582 0)
(0.999952 -0.010551 0)
(0.999867 -0.0105216 0)
(0.999781 -0.0104715 0)
(0.999695 -0.0104024 0)
(0.999609 -0.0103159 0)
(0.999525 -0.0102137 0)
(0.999442 -0.0100975 0)
(0.99936 -0.00996898 0)
(0.999281 -0.00982958 0)
(0.999203 -0.00968076 0)
(0.999129 -0.00952382 0)
(0.999057 -0.00935997 0)
(0.998988 -0.00919034 0)
(0.998921 -0.009016 0)
(0.998856 -0.008838 0)
(0.998791 -0.0086574 0)
(0.998726 -0.00847529 0)
(0.99866 -0.0082928 0)
(0.998593 -0.00811099 0)
(0.998526 -0.00793082 0)
(0.998463 -0.00775298 0)
(0.998407 -0.00757791 0)
(0.998358 -0.00740585 0)
(0.998318 -0.00723694 0)
(0.998286 -0.00707131 0)
(0.99826 -0.00690916 0)
(0.998239 -0.00675072 0)
(0.99822 -0.00659628 0)
(0.998202 -0.0064461 0)
(0.998185 -0.00630042 0)
(0.998168 -0.00615943 0)
(0.998152 -0.00602326 0)
(0.998136 -0.00589201 0)
(0.99812 -0.00576572 0)
(0.998104 -0.00564439 0)
(0.998089 -0.00552804 0)
(0.998075 -0.00541666 0)
(1.00108 -0.000295073 0)
(1.00108 -0.00104033 0)
(1.00111 -0.00165175 0)
(1.00113 -0.00231179 0)
(1.00116 -0.00295108 0)
(1.0012 -0.00358373 0)
(1.00124 -0.00421497 0)
(1.00128 -0.00484416 0)
(1.00132 -0.00547118 0)
(1.00136 -0.00609534 0)
(1.0014 -0.00671522 0)
(1.00144 -0.0073289 0)
(1.00147 -0.00793405 0)
(1.00149 -0.008528 0)
(1.0015 -0.00910785 0)
(1.0015 -0.00967055 0)
(1.0015 -0.010213 0)
(1.00148 -0.0107321 0)
(1.00145 -0.0112248 0)
(1.00141 -0.0116885 0)
(1.00136 -0.0121205 0)
(1.00129 -0.0125187 0)
(1.00121 -0.0128811 0)
(1.00112 -0.0132063 0)
(1.00101 -0.0134932 0)
(1.0009 -0.0137413 0)
(1.00078 -0.0139502 0)
(1.00064 -0.0141201 0)
(1.0005 -0.0142516 0)
(1.00036 -0.0143457 0)
(1.00021 -0.0144036 0)
(1.00005 -0.0144267 0)
(0.999892 -0.0144168 0)
(0.999731 -0.0143758 0)
(0.999569 -0.0143058 0)
(0.999408 -0.0142089 0)
(0.999248 -0.0140872 0)
(0.99909 -0.0139431 0)
(0.998935 -0.0137785 0)
(0.998782 -0.0135958 0)
(0.998634 -0.0133972 0)
(0.998489 -0.0131847 0)
(0.998349 -0.0129605 0)
(0.998214 -0.0127267 0)
(0.998084 -0.0124853 0)
(0.99796 -0.0122382 0)
(0.997842 -0.011987 0)
(0.997732 -0.0117333 0)
(0.997632 -0.0114782 0)
(0.997543 -0.0112227 0)
(0.997464 -0.0109676 0)
(0.997393 -0.0107136 0)
(0.997326 -0.0104615 0)
(0.997259 -0.0102121 0)
(0.997189 -0.00996652 0)
(0.997116 -0.00972561 0)
(0.99704 -0.00949016 0)
(0.996963 -0.00926073 0)
(0.996888 -0.00903769 0)
(0.996816 -0.00882124 0)
(0.996748 -0.00861148 0)
(0.996685 -0.00840845 0)
(0.996627 -0.00821218 0)
(0.996574 -0.00802267 0)
(0.996525 -0.00783992 0)
(0.99648 -0.0076639 0)
(0.996439 -0.00749459 0)
(0.996401 -0.00733198 0)
(0.996366 -0.00717608 0)
(1.00169 -0.000371113 0)
(1.0017 -0.00130135 0)
(1.00174 -0.0020694 0)
(1.00177 -0.00289843 0)
(1.00182 -0.00369811 0)
(1.00188 -0.00449085 0)
(1.00194 -0.00528156 0)
(1.002 -0.00606947 0)
(1.00207 -0.00685481 0)
(1.00213 -0.00763684 0)
(1.00219 -0.00841393 0)
(1.00224 -0.00918383 0)
(1.00229 -0.00994378 0)
(1.00232 -0.0106906 0)
(1.00234 -0.0114208 0)
(1.00235 -0.0121307 0)
(1.00234 -0.0128164 0)
(1.00232 -0.013474 0)
(1.00227 -0.0141 0)
(1.00221 -0.0146908 0)
(1.00212 -0.015243 0)
(1.00202 -0.0157538 0)
(1.0019 -0.0162207 0)
(1.00176 -0.0166417 0)
(1.0016 -0.0170153 0)
(1.00142 -0.0173404 0)
(1.00123 -0.0176164 0)
(1.00102 -0.0178436 0)
(1.0008 -0.0180222 0)
(1.00057 -0.0181533 0)
(1.00033 -0.0182383 0)
(1.00009 -0.0182788 0)
(0.999836 -0.018277 0)
(0.999582 -0.0182351 0)
(0.999326 -0.0181557 0)
(0.99907 -0.0180415 0)
(0.998815 -0.0178954 0)
(0.998563 -0.0177202 0)
(0.998315 -0.0175188 0)
(0.998071 -0.0172944 0)
(0.997833 -0.0170496 0)
(0.997602 -0.0167871 0)
(0.997377 -0.0165096 0)
(0.99716 -0.0162194 0)
(0.996951 -0.0159186 0)
(0.996749 -0.0156092 0)
(0.996554 -0.015293 0)
(0.996365 -0.014972 0)
(0.99618 -0.0146478 0)
(0.995997 -0.0143222 0)
(0.995816 -0.013997 0)
(0.995641 -0.0136738 0)
(0.995474 -0.0133538 0)
(0.995321 -0.013038 0)
(0.995183 -0.012727 0)
(0.995062 -0.0124214 0)
(0.994956 -0.0121214 0)
(0.994862 -0.0118276 0)
(0.994776 -0.0115405 0)
(0.994696 -0.0112606 0)
(0.994622 -0.0109883 0)
(0.99455 -0.0107241 0)
(0.994482 -0.0104683 0)
(0.994417 -0.0102211 0)
(0.994354 -0.00998259 0)
(0.994295 -0.00975291 0)
(0.994239 -0.00953205 0)
(0.994185 -0.00932003 0)
(0.994135 -0.00911684 0)
(1.00237 -0.000440921 0)
(1.00239 -0.00154091 0)
(1.00244 -0.00245542 0)
(1.00249 -0.00344083 0)
(1.00256 -0.00438903 0)
(1.00264 -0.00533126 0)
(1.00272 -0.00627127 0)
(1.00281 -0.0072085 0)
(1.0029 -0.00814366 0)
(1.00299 -0.00907606 0)
(1.00308 -0.010004 0)
(1.00315 -0.0109249 0)
(1.00322 -0.0118359 0)
(1.00327 -0.0127333 0)
(1.0033 -0.0136132 0)
(1.00332 -0.0144711 0)
(1.00331 -0.0153028 0)
(1.00328 -0.0161036 0)
(1.00322 -0.016869 0)
(1.00313 -0.0175948 0)
(1.00302 -0.018277 0)
(1.00288 -0.0189118 0)
(1.00271 -0.0194961 0)
(1.00252 -0.0200272 0)
(1.00229 -0.0205028 0)
(1.00205 -0.0209214 0)
(1.00178 -0.0212821 0)
(1.00149 -0.0215844 0)
(1.00118 -0.0218287 0)
(1.00085 -0.0220156 0)
(1.00051 -0.0221466 0)
(1.00016 -0.0222233 0)
(0.999805 -0.0222481 0)
(0.999441 -0.0222234 0)
(0.999073 -0.022152 0)
(0.998705 -0.022037 0)
(0.998337 -0.0218817 0)
(0.997972 -0.0216891 0)
(0.997612 -0.0214627 0)
(0.997258 -0.0212057 0)
(0.996912 -0.0209214 0)
(0.996574 -0.020613 0)
(0.996246 -0.0202839 0)
(0.995928 -0.0199372 0)
(0.995621 -0.019576 0)
(0.995326 -0.0192034 0)
(0.995045 -0.0188222 0)
(0.994778 -0.018435 0)
(0.994529 -0.018044 0)
(0.994298 -0.0176512 0)
(0.994086 -0.0172581 0)
(0.99389 -0.0168661 0)
(0.993705 -0.0164763 0)
(0.993525 -0.0160902 0)
(0.993347 -0.015709 0)
(0.993168 -0.0153343 0)
(0.992991 -0.014967 0)
(0.992819 -0.0146081 0)
(0.992653 -0.0142582 0)
(0.992496 -0.0139177 0)
(0.99235 -0.0135869 0)
(0.992214 -0.0132661 0)
(0.992088 -0.0129554 0)
(0.991972 -0.012655 0)
(0.991865 -0.0123649 0)
(0.991765 -0.0120852 0)
(0.991673 -0.0118159 0)
(0.991588 -0.0115571 0)
(0.991508 -0.0113088 0)
(1.00311 -0.000505406 0)
(1.00314 -0.0017603 0)
(1.0032 -0.00280943 0)
(1.00327 -0.00393868 0)
(1.00336 -0.00502408 0)
(1.00346 -0.00610553 0)
(1.00358 -0.00718526 0)
(1.0037 -0.00826329 0)
(1.00382 -0.00934086 0)
(1.00394 -0.0104175 0)
(1.00406 -0.0114914 0)
(1.00416 -0.0125601 0)
(1.00425 -0.0136204 0)
(1.00433 -0.0146684 0)
(1.00438 -0.0156998 0)
(1.00441 -0.0167097 0)
(1.00441 -0.0176931 0)
(1.00437 -0.0186448 0)
(1.00431 -0.0195597 0)
(1.0042 -0.0204325 0)
(1.00406 -0.0212586 0)
(1.00389 -0.0220333 0)
(1.00367 -0.0227525 0)
(1.00342 -0.0234128 0)
(1.00314 -0.0240111 0)
(1.00282 -0.0245452 0)
(1.00247 -0.0250133 0)
(1.00208 -0.0254145 0)
(1.00168 -0.0257485 0)
(1.00125 -0.0260157 0)
(1.0008 -0.0262172 0)
(1.00033 -0.0263545 0)
(0.99985 -0.0264298 0)
(0.999361 -0.0264456 0)
(0.998865 -0.0264051 0)
(0.998367 -0.0263115 0)
(0.997869 -0.0261684 0)
(0.997373 -0.0259797 0)
(0.996883 -0.0257494 0)
(0.9964 -0.0254816 0)
(0.995926 -0.0251803 0)
(0.995464 -0.0248495 0)
(0.995014 -0.0244929 0)
(0.994578 -0.0241142 0)
(0.994157 -0.0237165 0)
(0.993751 -0.023303 0)
(0.99336 -0.0228763 0)
(0.992982 -0.0224391 0)
(0.992617 -0.0219938 0)
(0.992261 -0.0215429 0)
(0.991915 -0.021089 0)
(0.99158 -0.0206345 0)
(0.991262 -0.0201816 0)
(0.990966 -0.0197322 0)
(0.990695 -0.0192877 0)
(0.99045 -0.0188492 0)
(0.990229 -0.0184176 0)
(0.990026 -0.017994 0)
(0.989839 -0.0175792 0)
(0.989664 -0.0171741 0)
(0.989498 -0.0167795 0)
(0.989341 -0.0163959 0)
(0.989191 -0.0160238 0)
(0.989049 -0.0156638 0)
(0.988914 -0.0153159 0)
(0.988787 -0.0149804 0)
(0.988667 -0.0146573 0)
(0.988554 -0.0143467 0)
(0.988449 -0.0140486 0)
(1.00391 -0.000565685 0)
(1.00394 -0.00196215 0)
(1.00401 -0.00313421 0)
(1.0041 -0.0043961 0)
(1.00422 -0.00560868 0)
(1.00435 -0.00682019 0)
(1.0045 -0.00803131 0)
(1.00466 -0.00924286 0)
(1.00482 -0.0104568 0)
(1.00498 -0.0116727 0)
(1.00513 -0.0128891 0)
(1.00527 -0.0141036 0)
(1.0054 -0.0153129 0)
(1.0055 -0.0165131 0)
(1.00558 -0.0176993 0)
(1.00563 -0.0188665 0)
(1.00564 -0.0200091 0)
(1.00562 -0.0211213 0)
(1.00555 -0.0221972 0)
(1.00543 -0.0232309 0)
(1.00528 -0.0242168 0)
(1.00507 -0.0251493 0)
(1.00481 -0.0260233 0)
(1.00451 -0.0268345 0)
(1.00416 -0.0275787 0)
(1.00377 -0.0282527 0)
(1.00333 -0.0288539 0)
(1.00286 -0.0293805 0)
(1.00235 -0.0298314 0)
(1.0018 -0.0302064 0)
(1.00123 -0.0305059 0)
(1.00064 -0.0307311 0)
(1.00003 -0.0308839 0)
(0.999399 -0.0309666 0)
(0.998763 -0.0309823 0)
(0.99812 -0.0309342 0)
(0.997476 -0.0308261 0)
(0.996834 -0.030662 0)
(0.996197 -0.0304459 0)
(0.995568 -0.030182 0)
(0.994951 -0.0298745 0)
(0.994347 -0.0295278 0)
(0.993758 -0.029146 0)
(0.993187 -0.0287335 0)
(0.992634 -0.0282946 0)
(0.9921 -0.0278338 0)
(0.991588 -0.0273553 0)
(0.991099 -0.0268631 0)
(0.990636 -0.026361 0)
(0.9902 -0.0258524 0)
(0.989793 -0.0253399 0)
(0.989412 -0.024826 0)
(0.989052 -0.0243125 0)
(0.988705 -0.0238012 0)
(0.988367 -0.0232941 0)
(0.988036 -0.0227929 0)
(0.987714 -0.0222993 0)
(0.987403 -0.0218146 0)
(0.987107 -0.02134 0)
(0.986828 -0.0208763 0)
(0.986567 -0.0204242 0)
(0.986325 -0.0199842 0)
(0.986099 -0.0195568 0)
(0.98589 -0.0191424 0)
(0.985695 -0.0187413 0)
(0.985514 -0.0183538 0)
(0.985345 -0.01798 0)
(0.985188 -0.01762 0)
(0.985042 -0.0172741 0)
(1.00475 -0.000622202 0)
(1.00479 -0.00214831 0)
(1.00488 -0.00343294 0)
(1.00499 -0.0048176 0)
(1.00514 -0.00614842 0)
(1.00531 -0.00748178 0)
(1.00549 -0.00881684 0)
(1.00569 -0.0101555 0)
(1.00589 -0.0115002 0)
(1.0061 -0.0128511 0)
(1.00629 -0.0142069 0)
(1.00648 -0.0155655 0)
(1.00665 -0.0169237 0)
(1.00679 -0.0182773 0)
(1.0069 -0.0196216 0)
(1.00698 -0.0209511 0)
(1.00701 -0.0222599 0)
(1.007 -0.0235416 0)
(1.00694 -0.0247898 0)
(1.00682 -0.0259976 0)
(1.00665 -0.0271586 0)
(1.00642 -0.0282663 0)
(1.00613 -0.0293147 0)
(1.00578 -0.0302979 0)
(1.00538 -0.0312109 0)
(1.00491 -0.0320493 0)
(1.00439 -0.0328094 0)
(1.00382 -0.0334881 0)
(1.00321 -0.0340834 0)
(1.00255 -0.0345942 0)
(1.00185 -0.0350199 0)
(1.00113 -0.0353612 0)
(1.00037 -0.0356192 0)
(0.9996 -0.0357959 0)
(0.99881 -0.0358941 0)
(0.99801 -0.0359169 0)
(0.997206 -0.0358682 0)
(0.9964 -0.0357521 0)
(0.995599 -0.0355735 0)
(0.994806 -0.0353371 0)
(0.994025 -0.0350481 0)
(0.993258 -0.0347119 0)
(0.992508 -0.0343336 0)
(0.991779 -0.0339184 0)
(0.991071 -0.0334708 0)
(0.990387 -0.0329953 0)
(0.989726 -0.0324956 0)
(0.989089 -0.0319756 0)
(0.988475 -0.0314385 0)
(0.987881 -0.0308876 0)
(0.987307 -0.0303263 0)
(0.986753 -0.0297581 0)
(0.986225 -0.0291863 0)
(0.985728 -0.0286141 0)
(0.985267 -0.0280441 0)
(0.984844 -0.0274784 0)
(0.984454 -0.0269189 0)
(0.984093 -0.0263672 0)
(0.983757 -0.0258248 0)
(0.98344 -0.0252931 0)
(0.98314 -0.0247733 0)
(0.982857 -0.0242665 0)
(0.982588 -0.0237735 0)
(0.982333 -0.0232949 0)
(0.982093 -0.0228313 0)
(0.981867 -0.0223831 0)
(0.981655 -0.0219506 0)
(0.981455 -0.0215338 0)
(0.981268 -0.0211331 0)
(1.00563 -0.000674819 0)
(1.00568 -0.00231957 0)
(1.00578 -0.00370788 0)
(1.00592 -0.00520619 0)
(1.0061 -0.00664676 0)
(1.0063 -0.00809417 0)
(1.00653 -0.009546 0)
(1.00677 -0.0110052 0)
(1.00702 -0.0124751 0)
(1.00727 -0.0139563 0)
(1.00752 -0.0154477 0)
(1.00775 -0.0169478 0)
(1.00797 -0.0184533 0)
(1.00816 -0.0199604 0)
(1.00831 -0.0214642 0)
(1.00843 -0.0229591 0)
(1.00849 -0.0244389 0)
(1.00851 -0.0258968 0)
(1.00846 -0.0273257 0)
(1.00836 -0.0287183 0)
(1.00818 -0.030067 0)
(1.00794 -0.0313646 0)
(1.00762 -0.0326037 0)
(1.00724 -0.0337776 0)
(1.00678 -0.0348799 0)
(1.00625 -0.0359048 0)
(1.00566 -0.0368473 0)
(1.005 -0.0377031 0)
(1.00428 -0.0384688 0)
(1.00351 -0.0391421 0)
(1.00269 -0.0397214 0)
(1.00183 -0.0402063 0)
(1.00093 -0.0405971 0)
(0.999997 -0.0408953 0)
(0.999046 -0.041103 0)
(0.998078 -0.0412232 0)
(0.9971 -0.0412594 0)
(0.996118 -0.0412158 0)
(0.995138 -0.0410969 0)
(0.994164 -0.0409077 0)
(0.993203 -0.0406532 0)
(0.992257 -0.0403384 0)
(0.991331 -0.0399686 0)
(0.990427 -0.0395492 0)
(0.98955 -0.0390856 0)
(0.9887 -0.0385834 0)
(0.98788 -0.0380484 0)
(0.987092 -0.0374864 0)
(0.986338 -0.0369029 0)
(0.985623 -0.036303 0)
(0.984947 -0.0356913 0)
(0.984309 -0.0350714 0)
(0.983705 -0.0344464 0)
(0.983127 -0.0338191 0)
(0.982569 -0.033192 0)
(0.982028 -0.0325676 0)
(0.981506 -0.0319485 0)
(0.981006 -0.0313368 0)
(0.98053 -0.0307344 0)
(0.980082 -0.0301427 0)
(0.979662 -0.0295632 0)
(0.97927 -0.0289969 0)
(0.978904 -0.0284448 0)
(0.978562 -0.0279076 0)
(0.978243 -0.0273861 0)
(0.977945 -0.0268808 0)
(0.977667 -0.0263921 0)
(0.977407 -0.0259205 0)
(0.977165 -0.0254662 0)
(1.00653 -0.000723315 0)
(1.00659 -0.00247621 0)
(1.00671 -0.00396015 0)
(1.00687 -0.00556324 0)
(1.00708 -0.00710517 0)
(1.00732 -0.00865873 0)
(1.00759 -0.0102199 0)
(1.00788 -0.0117927 0)
(1.00818 -0.0133813 0)
(1.00849 -0.0149868 0)
(1.00879 -0.0166087 0)
(1.00908 -0.0182458 0)
(1.00936 -0.0198953 0)
(1.0096 -0.0215534 0)
(1.00981 -0.0232155 0)
(1.00997 -0.0248758 0)
(1.01008 -0.0265281 0)
(1.01013 -0.0281653 0)
(1.01011 -0.0297798 0)
(1.01003 -0.0313637 0)
(1.00986 -0.0329088 0)
(1.00962 -0.0344068 0)
(1.00929 -0.0358494 0)
(1.00888 -0.0372287 0)
(1.00838 -0.0385369 0)
(1.0078 -0.0397669 0)
(1.00714 -0.0409122 0)
(1.0064 -0.0419672 0)
(1.00559 -0.0429269 0)
(1.00471 -0.0437875 0)
(1.00376 -0.0445463 0)
(1.00276 -0.0452014 0)
(1.00172 -0.0457522 0)
(1.00063 -0.046199 0)
(0.999509 -0.0465433 0)
(0.998364 -0.0467872 0)
(0.997202 -0.0469339 0)
(0.99603 -0.0469873 0)
(0.994856 -0.0469519 0)
(0.993685 -0.046833 0)
(0.992525 -0.0466363 0)
(0.991379 -0.0463679 0)
(0.990253 -0.0460344 0)
(0.989151 -0.0456422 0)
(0.988076 -0.0451978 0)
(0.987032 -0.0447071 0)
(0.986021 -0.0441758 0)
(0.985044 -0.0436087 0)
(0.984102 -0.0430106 0)
(0.983192 -0.0423858 0)
(0.982314 -0.0417388 0)
(0.981469 -0.0410743 0)
(0.980659 -0.040397 0)
(0.979892 -0.0397116 0)
(0.979172 -0.0390223 0)
(0.978502 -0.0383327 0)
(0.97788 -0.0376457 0)
(0.977299 -0.036964 0)
(0.976754 -0.03629 0)
(0.976239 -0.0356258 0)
(0.975753 -0.0349733 0)
(0.975293 -0.0343343 0)
(0.974858 -0.0337102 0)
(0.974447 -0.0331021 0)
(0.97406 -0.0325111 0)
(0.973695 -0.0319379 0)
(0.973353 -0.0313831 0)
(0.973031 -0.0308471 0)
(0.972729 -0.0303306 0)
(1.00743 -0.000767689 0)
(1.0075 -0.00261856 0)
(1.00764 -0.00419028 0)
(1.00783 -0.00588932 0)
(1.00808 -0.00752413 0)
(1.00836 -0.00917568 0)
(1.00868 -0.0108381 0)
(1.00902 -0.0125168 0)
(1.00938 -0.0142167 0)
(1.00974 -0.0159393 0)
(1.0101 -0.017685 0)
(1.01046 -0.0194528 0)
(1.01079 -0.0212406 0)
(1.0111 -0.0230448 0)
(1.01137 -0.024861 0)
(1.01159 -0.0266837 0)
(1.01175 -0.0285065 0)
(1.01185 -0.0303224 0)
(1.01188 -0.0321234 0)
(1.01183 -0.0339011 0)
(1.01169 -0.0356469 0)
(1.01146 -0.0373516 0)
(1.01114 -0.0390061 0)
(1.01071 -0.0406012 0)
(1.01019 -0.042128 0)
(1.00957 -0.043578 0)
(1.00886 -0.0449432 0)
(1.00804 -0.0462163 0)
(1.00714 -0.047391 0)
(1.00616 -0.0484616 0)
(1.0051 -0.0494239 0)
(1.00396 -0.0502746 0)
(1.00277 -0.0510115 0)
(1.00152 -0.0516337 0)
(1.00023 -0.0521414 0)
(0.9989 -0.0525361 0)
(0.997545 -0.0528201 0)
(0.996173 -0.0529968 0)
(0.994791 -0.0530705 0)
(0.993409 -0.0530461 0)
(0.992033 -0.052929 0)
(0.99067 -0.052725 0)
(0.989328 -0.0524401 0)
(0.988011 -0.0520805 0)
(0.986724 -0.0516527 0)
(0.985472 -0.0511632 0)
(0.984258 -0.0506194 0)
(0.983085 -0.0500285 0)
(0.981957 -0.049398 0)
(0.980876 -0.0487352 0)
(0.979847 -0.0480468 0)
(0.978869 -0.0473385 0)
(0.97794 -0.0466151 0)
(0.977054 -0.0458806 0)
(0.976203 -0.0451387 0)
(0.975382 -0.0443931 0)
(0.974593 -0.0436474 0)
(0.973838 -0.042905 0)
(0.973121 -0.0421688 0)
(0.972444 -0.0414414 0)
(0.971808 -0.0407251 0)
(0.971211 -0.0400216 0)
(0.970652 -0.0393327 0)
(0.970129 -0.0386598 0)
(0.969639 -0.0380041 0)
(0.96918 -0.0373667 0)
(0.968751 -0.0367483 0)
(0.968349 -0.0361499 0)
(0.967974 -0.035572 0)
(1.00833 -0.000808156 0)
(1.00842 -0.0027473 0)
(1.00858 -0.00439894 0)
(1.0088 -0.0061852 0)
(1.00908 -0.00790448 0)
(1.0094 -0.00964568 0)
(1.00977 -0.0114011 0)
(1.01016 -0.0131773 0)
(1.01058 -0.0149801 0)
(1.01101 -0.0168117 0)
(1.01144 -0.018673 0)
(1.01187 -0.0205637 0)
(1.01227 -0.0224822 0)
(1.01265 -0.0244253 0)
(1.01299 -0.0263891 0)
(1.01328 -0.0283682 0)
(1.01351 -0.0303566 0)
(1.01367 -0.0323472 0)
(1.01375 -0.034332 0)
(1.01375 -0.0363024 0)
(1.01365 -0.0382493 0)
(1.01345 -0.040163 0)
(1.01314 -0.0420336 0)
(1.01272 -0.043851 0)
(1.01219 -0.0456052 0)
(1.01155 -0.0472863 0)
(1.01079 -0.0488848 0)
(1.00992 -0.050392 0)
(1.00895 -0.0517996 0)
(1.00787 -0.0531004 0)
(1.0067 -0.0542883 0)
(1.00544 -0.0553582 0)
(1.0041 -0.0563063 0)
(1.00269 -0.05713 0)
(1.00123 -0.0578282 0)
(0.999712 -0.058401 0)
(0.998159 -0.0588496 0)
(0.996577 -0.0591765 0)
(0.994978 -0.0593852 0)
(0.993371 -0.0594802 0)
(0.991765 -0.0594671 0)
(0.990168 -0.059352 0)
(0.988588 -0.0591419 0)
(0.987032 -0.0588445 0)
(0.985507 -0.0584677 0)
(0.984016 -0.0580193 0)
(0.982566 -0.0575067 0)
(0.981158 -0.056937 0)
(0.979797 -0.0563162 0)
(0.978481 -0.0556503 0)
(0.977211 -0.0549451 0)
(0.975987 -0.0542065 0)
(0.974811 -0.0534408 0)
(0.973689 -0.0526547 0)
(0.972628 -0.0518543 0)
(0.971631 -0.051045 0)
(0.970698 -0.0502313 0)
(0.969822 -0.0494173 0)
(0.968998 -0.0486065 0)
(0.968219 -0.0478022 0)
(0.967483 -0.0470074 0)
(0.966786 -0.0462248 0)
(0.966127 -0.0454567 0)
(0.965505 -0.0447051 0)
(0.964919 -0.0439716 0)
(0.964367 -0.0432576 0)
(0.963849 -0.0425642 0)
(0.963362 -0.0418925 0)
(0.962906 -0.0412431 0)
(1.00923 -0.000845014 0)
(1.00933 -0.00286331 0)
(1.00951 -0.00458723 0)
(1.00976 -0.00645231 0)
(1.01007 -0.00824791 0)
(1.01044 -0.0100705 0)
(1.01086 -0.0119105 0)
(1.01131 -0.0137757 0)
(1.01179 -0.0156727 0)
(1.01229 -0.0176044 0)
(1.01279 -0.0195725 0)
(1.01329 -0.0215772 0)
(1.01377 -0.0236174 0)
(1.01423 -0.0256907 0)
(1.01464 -0.0277935 0)
(1.01501 -0.029921 0)
(1.01532 -0.0320675 0)
(1.01555 -0.034226 0)
(1.0157 -0.0363889 0)
(1.01576 -0.0385475 0)
(1.01571 -0.0406924 0)
(1.01555 -0.0428138 0)
(1.01528 -0.0449011 0)
(1.01488 -0.0469434 0)
(1.01436 -0.0489299 0)
(1.01371 -0.0508494 0)
(1.01293 -0.0526911 0)
(1.01202 -0.0544447 0)
(1.01099 -0.0561003 0)
(1.00983 -0.0576488 0)
(1.00856 -0.0590821 0)
(1.00719 -0.0603933 0)
(1.00572 -0.0615765 0)
(1.00416 -0.0626274 0)
(1.00252 -0.0635429 0)
(1.00082 -0.0643215 0)
(0.999067 -0.064963 0)
(0.997271 -0.0654687 0)
(0.995446 -0.0658412 0)
(0.993603 -0.0660843 0)
(0.991753 -0.0662028 0)
(0.989906 -0.0662026 0)
(0.988072 -0.06609 0)
(0.986261 -0.0658716 0)
(0.984479 -0.0655546 0)
(0.982735 -0.0651464 0)
(0.981034 -0.0646553 0)
(0.979382 -0.0640897 0)
(0.977784 -0.0634591 0)
(0.976243 -0.0627728 0)
(0.974765 -0.0620401 0)
(0.973353 -0.0612692 0)
(0.972006 -0.0604673 0)
(0.970721 -0.0596404 0)
(0.969489 -0.0587938 0)
(0.968305 -0.0579326 0)
(0.967168 -0.057062 0)
(0.96608 -0.0561871 0)
(0.965045 -0.0553123 0)
(0.964066 -0.0544417 0)
(0.963143 -0.0535787 0)
(0.962275 -0.0527263 0)
(0.96146 -0.0518872 0)
(0.960695 -0.0510637 0)
(0.959977 -0.0502579 0)
(0.959304 -0.0494716 0)
(0.958672 -0.0487061 0)
(0.958081 -0.047963 0)
(0.957526 -0.0472432 0)
(1.01012 -0.000878542 0)
(1.01023 -0.00296758 0)
(1.01043 -0.0047566 0)
(1.01071 -0.00669259 0)
(1.01106 -0.00855677 0)
(1.01148 -0.0104528 0)
(1.01195 -0.0123692 0)
(1.01246 -0.0143149 0)
(1.013 -0.0162974 0)
(1.01357 -0.0183201 0)
(1.01415 -0.0203856 0)
(1.01472 -0.0224946 0)
(1.01529 -0.0246469 0)
(1.01582 -0.0268405 0)
(1.01633 -0.0290725 0)
(1.01678 -0.0313388 0)
(1.01717 -0.033634 0)
(1.01748 -0.0359517 0)
(1.01771 -0.0382845 0)
(1.01784 -0.040624 0)
(1.01786 -0.0429611 0)
(1.01777 -0.0452855 0)
(1.01754 -0.0475866 0)
(1.01719 -0.049853 0)
(1.01669 -0.0520731 0)
(1.01605 -0.0542348 0)
(1.01526 -0.0563261 0)
(1.01433 -0.0583353 0)
(1.01326 -0.0602508 0)
(1.01204 -0.0620617 0)
(1.01069 -0.0637581 0)
(1.00922 -0.0653307 0)
(1.00762 -0.0667718 0)
(1.00592 -0.0680747 0)
(1.00413 -0.0692344 0)
(1.00224 -0.0702472 0)
(1.00029 -0.0711112 0)
(0.998279 -0.0718261 0)
(0.996224 -0.0723928 0)
(0.994138 -0.072814 0)
(0.992034 -0.0730935 0)
(0.989924 -0.0732365 0)
(0.987821 -0.0732494 0)
(0.985734 -0.0731397 0)
(0.983673 -0.072916 0)
(0.981647 -0.0725873 0)
(0.979664 -0.0721631 0)
(0.97773 -0.0716522 0)
(0.97585 -0.0710631 0)
(0.974028 -0.0704034 0)
(0.972265 -0.0696804 0)
(0.970561 -0.0689017 0)
(0.96892 -0.0680753 0)
(0.967346 -0.0672098 0)
(0.965847 -0.0663138 0)
(0.96443 -0.065395 0)
(0.963094 -0.0644602 0)
(0.961836 -0.0635152 0)
(0.960649 -0.0625651 0)
(0.959527 -0.0616149 0)
(0.958464 -0.0606691 0)
(0.957458 -0.0597316 0)
(0.956507 -0.0588062 0)
(0.955608 -0.0578959 0)
(0.954761 -0.0570034 0)
(0.953964 -0.056131 0)
(0.953214 -0.0552806 0)
(0.95251 -0.054454 0)
(0.951849 -0.0536524 0)
(1.01099 -0.000908971 0)
(1.01111 -0.00306102 0)
(1.01133 -0.00490852 0)
(1.01164 -0.00690811 0)
(1.01203 -0.00883361 0)
(1.0125 -0.0107956 0)
(1.01302 -0.0127805 0)
(1.01359 -0.0147985 0)
(1.0142 -0.0168578 0)
(1.01484 -0.0189626 0)
(1.01549 -0.021116 0)
(1.01615 -0.0233197 0)
(1.0168 -0.0255738 0)
(1.01742 -0.0278773 0)
(1.01802 -0.030228 0)
(1.01856 -0.0326222 0)
(1.01904 -0.0350555 0)
(1.01945 -0.0375219 0)
(1.01976 -0.0400147 0)
(1.01998 -0.042526 0)
(1.02008 -0.0450467 0)
(1.02006 -0.047567 0)
(1.01991 -0.0500761 0)
(1.0196 -0.0525627 0)
(1.01915 -0.0550144 0)
(1.01854 -0.0574188 0)
(1.01777 -0.0597628 0)
(1.01684 -0.0620335 0)
(1.01575 -0.0642178 0)
(1.01449 -0.0663032 0)
(1.01308 -0.0682777 0)
(1.01152 -0.0701301 0)
(1.00983 -0.0718502 0)
(1.008 -0.0734291 0)
(1.00605 -0.0748593 0)
(1.00399 -0.076135 0)
(1.00185 -0.0772518 0)
(0.999625 -0.0782073 0)
(0.997339 -0.0790007 0)
(0.995006 -0.0796328 0)
(0.99264 -0.0801064 0)
(0.990256 -0.0804256 0)
(0.987869 -0.0805958 0)
(0.98549 -0.0806235 0)
(0.983133 -0.080516 0)
(0.980808 -0.080281 0)
(0.978526 -0.0799271 0)
(0.976296 -0.0794636 0)
(0.974125 -0.0789009 0)
(0.972019 -0.0782505 0)
(0.969987 -0.0775239 0)
(0.968034 -0.0767326 0)
(0.966163 -0.0758867 0)
(0.964374 -0.0749948 0)
(0.962659 -0.0740644 0)
(0.961012 -0.0731025 0)
(0.959431 -0.0721164 0)
(0.957916 -0.0711132 0)
(0.956472 -0.0700997 0)
(0.955103 -0.0690818 0)
(0.953809 -0.0680647 0)
(0.952589 -0.067053 0)
(0.951441 -0.0660508 0)
(0.950362 -0.0650618 0)
(0.949347 -0.0640892 0)
(0.948394 -0.0631356 0)
(0.947499 -0.0622037 0)
(0.94666 -0.0612957 0)
(0.945873 -0.0604133 0)
(1.01185 -0.000936501 0)
(1.01198 -0.00314447 0)
(1.01222 -0.0050444 0)
(1.01256 -0.00710081 0)
(1.01299 -0.00908086 0)
(1.0135 -0.0111017 0)
(1.01407 -0.0131477 0)
(1.0147 -0.0152302 0)
(1.01538 -0.017358 0)
(1.01609 -0.0195361 0)
(1.01682 -0.0217682 0)
(1.01756 -0.0240567 0)
(1.0183 -0.0264025 0)
(1.01902 -0.0288053 0)
(1.0197 -0.0312635 0)
(1.02034 -0.0337745 0)
(1.02092 -0.0363344 0)
(1.02143 -0.0389382 0)
(1.02185 -0.0415797 0)
(1.02216 -0.0442517 0)
(1.02235 -0.0469459 0)
(1.02242 -0.0496527 0)
(1.02235 -0.0523619 0)
(1.02212 -0.0550619 0)
(1.02173 -0.0577406 0)
(1.02117 -0.0603851 0)
(1.02044 -0.0629817 0)
(1.01953 -0.0655165 0)
(1.01844 -0.0679754 0)
(1.01716 -0.0703443 0)
(1.01572 -0.0726093 0)
(1.0141 -0.0747572 0)
(1.01231 -0.0767755 0)
(1.01037 -0.0786529 0)
(1.00829 -0.0803793 0)
(1.00608 -0.0819462 0)
(1.00375 -0.0833467 0)
(1.00132 -0.0845757 0)
(0.998812 -0.0856302 0)
(0.996232 -0.0865089 0)
(0.993602 -0.0872124 0)
(0.990938 -0.0877434 0)
(0.988256 -0.0881058 0)
(0.985572 -0.0883057 0)
(0.9829 -0.0883505 0)
(0.980254 -0.0882492 0)
(0.977645 -0.088012 0)
(0.975085 -0.0876496 0)
(0.972582 -0.0871724 0)
(0.970144 -0.0865902 0)
(0.967776 -0.0859123 0)
(0.965481 -0.0851478 0)
(0.963261 -0.0843064 0)
(0.961123 -0.0833988 0)
(0.959075 -0.0824364 0)
(0.957126 -0.0814299 0)
(0.955281 -0.0803892 0)
(0.953537 -0.0793223 0)
(0.951887 -0.0782368 0)
(0.950326 -0.0771396 0)
(0.948846 -0.0760373 0)
(0.947444 -0.0749359 0)
(0.946117 -0.0738408 0)
(0.944864 -0.0727569 0)
(0.943681 -0.0716884 0)
(0.942568 -0.0706387 0)
(0.94152 -0.069611 0)
(0.940535 -0.0686081 0)
(0.939611 -0.0676322 0)
(1.01268 -0.00096133 0)
(1.01282 -0.00321869 0)
(1.01308 -0.00516547 0)
(1.01345 -0.00727244 0)
(1.01392 -0.00930075 0)
(1.01447 -0.0113738 0)
(1.0151 -0.0134739 0)
(1.01579 -0.0156135 0)
(1.01654 -0.017802 0)
(1.01732 -0.020045 0)
(1.01813 -0.0223468 0)
(1.01895 -0.0247106 0)
(1.01978 -0.0271381 0)
(1.02059 -0.0296295 0)
(1.02137 -0.0321844 0)
(1.02212 -0.0348006 0)
(1.0228 -0.0374754 0)
(1.02341 -0.0402044 0)
(1.02393 -0.0429826 0)
(1.02435 -0.0458034 0)
(1.02465 -0.0486593 0)
(1.02482 -0.0515417 0)
(1.02484 -0.0544406 0)
(1.0247 -0.0573453 0)
(1.0244 -0.0602437 0)
(1.02391 -0.0631228 0)
(1.02323 -0.0659689 0)
(1.02237 -0.0687674 0)
(1.0213 -0.0715034 0)
(1.02004 -0.0741614 0)
(1.01858 -0.0767262 0)
(1.01692 -0.0791826 0)
(1.01508 -0.0815159 0)
(1.01305 -0.0837123 0)
(1.01086 -0.085759 0)
(1.00851 -0.0876446 0)
(1.00601 -0.0893594 0)
(1.00339 -0.0908954 0)
(1.00066 -0.0922466 0)
(0.997844 -0.0934091 0)
(0.994951 -0.094381 0)
(0.992003 -0.0951627 0)
(0.98902 -0.0957567 0)
(0.98602 -0.0961672 0)
(0.983019 -0.0964 0)
(0.980035 -0.0964623 0)
(0.977082 -0.0963623 0)
(0.974174 -0.0961092 0)
(0.971325 -0.0957136 0)
(0.968544 -0.0951877 0)
(0.965842 -0.0945454 0)
(0.963229 -0.0938007 0)
(0.960713 -0.0929676 0)
(0.958298 -0.092058 0)
(0.955981 -0.0910823 0)
(0.953754 -0.09005 0)
(0.951614 -0.0889707 0)
(0.949561 -0.0878541 0)
(0.947598 -0.0867101 0)
(0.945732 -0.0855473 0)
(0.943965 -0.0843734 0)
(0.942296 -0.0831953 0)
(0.940722 -0.082019 0)
(0.939241 -0.08085 0)
(0.937847 -0.0796933 0)
(0.936536 -0.0785531 0)
(0.935304 -0.0774334 0)
(0.934148 -0.0763377 0)
(0.933063 -0.0752689 0)
(1.01348 -0.000983649 0)
(1.01363 -0.00328439 0)
(1.01392 -0.00527282 0)
(1.01431 -0.00742453 0)
(1.01482 -0.00949527 0)
(1.01542 -0.0116144 0)
(1.0161 -0.0137621 0)
(1.01685 -0.0159518 0)
(1.01766 -0.0181936 0)
(1.01852 -0.0204935 0)
(1.01941 -0.0228566 0)
(1.02031 -0.0252867 0)
(1.02123 -0.027786 0)
(1.02214 -0.0303559 0)
(1.02302 -0.0329964 0)
(1.02386 -0.0357065 0)