/*--------------------------------*- C++ -*----------------------------------*\
  =========                 |
  \\      /  F ield         | OpenFOAM: The Open Source CFD Toolbox
   \\    /   O peration     | Website:  https://openfoam.org
    \\  /    A nd           | Version:  10
     \\/     M anipulation  |
\*---------------------------------------------------------------------------*/
FoamFile
{
    format      ascii;
    class       volVectorField;
    location    "70";
    object      U;
}
// * * * * * * * * * * * * * * * * * * * * * * * * * * * * * * * * * * * * * //

dimensions      [0 1 -1 0 0 0 0];

internalField   nonuniform List<vector> 
66268
(
(1 -3.79034e-05 0)
(1 -0.000139072 0)
(1 -0.000222081 0)
(1 -0.000309379 0)
(1 -0.000395244 0)
(1 -0.000480309 0)
(1 -0.000565202 0)
(1 -0.000650035 0)
(1 -0.000734767 0)
(1 -0.000819299 0)
(1 -0.000903453 0)
(1 -0.00098697 0)
(1 -0.00106953 0)
(1 -0.00115077 0)
(1 -0.00123027 0)
(1 -0.00130761 0)
(1 -0.00138236 0)
(1 -0.00145407 0)
(1 -0.00152233 0)
(1 -0.00158673 0)
(1 -0.00164693 0)
(1 -0.0017026 0)
(1 -0.00175349 0)
(1 -0.00179938 0)
(1 -0.00184012 0)
(1 -0.00187563 0)
(1 -0.00190587 0)
(1 -0.00193087 0)
(1 -0.0019507 0)
(1 -0.00196552 0)
(1 -0.00197548 0)
(1 -0.00198081 0)
(1 -0.00198175 0)
(1 -0.00197857 0)
(1 -0.00197157 0)
(1 -0.00196106 0)
(1 -0.00194739 0)
(1 -0.00193086 0)
(1 -0.00191182 0)
(1 -0.00189055 0)
(1 -0.00186731 0)
(1 -0.00184233 0)
(1 -0.00181582 0)
(0.999999 -0.00178794 0)
(0.999999 -0.00175884 0)
(0.999998 -0.00172869 0)
(0.999995 -0.0016976 0)
(0.999991 -0.00166572 0)
(0.999985 -0.00163319 0)
(0.999975 -0.00160016 0)
(0.999963 -0.00156683 0)
(0.99995 -0.00153338 0)
(0.999937 -0.00150005 0)
(0.999926 -0.00146702 0)
(0.999919 -0.00143446 0)
(0.999917 -0.00140249 0)
(0.999918 -0.00137121 0)
(0.999923 -0.00134072 0)
(0.999929 -0.00131107 0)
(0.999937 -0.00128232 0)
(0.999945 -0.00125452 0)
(0.999953 -0.0012277 0)
(0.99996 -0.00120189 0)
(0.999966 -0.0011771 0)
(0.99997 -0.00115332 0)
(0.999974 -0.00113055 0)
(0.999977 -0.00110878 0)
(0.99998 -0.00108801 0)
(0.999981 -0.00106827 0)
(1.00016 -0.000110838 0)
(1.00016 -0.000400311 0)
(1.00017 -0.000637021 0)
(1.00017 -0.000888514 0)
(1.00018 -0.00113454 0)
(1.00018 -0.00137772 0)
(1.00019 -0.00162014 0)
(1.0002 -0.00186188 0)
(1.0002 -0.00210282 0)
(1.00021 -0.00234266 0)
(1.00022 -0.00258089 0)
(1.00022 -0.00281674 0)
(1.00023 -0.00304931 0)
(1.00023 -0.00327755 0)
(1.00024 -0.00350032 0)
(1.00024 -0.0037164 0)
(1.00024 -0.00392456 0)
(1.00024 -0.00412358 0)
(1.00023 -0.00431229 0)
(1.00023 -0.00448959 0)
(1.00022 -0.00465448 0)
(1.00021 -0.0048061 0)
(1.0002 -0.00494374 0)
(1.00019 -0.00506683 0)
(1.00017 -0.00517498 0)
(1.00015 -0.00526796 0)
(1.00014 -0.00534574 0)
(1.00012 -0.00540839 0)
(1.00009 -0.00545618 0)
(1.00007 -0.00548951 0)
(1.00005 -0.00550894 0)
(1.00002 -0.00551509 0)
(0.999997 -0.00550864 0)
(0.999971 -0.00549034 0)
(0.999944 -0.00546097 0)
(0.999918 -0.00542133 0)
(0.999892 -0.00537223 0)
(0.999866 -0.00531447 0)
(0.99984 -0.00524885 0)
(0.999814 -0.00517622 0)
(0.999789 -0.00509741 0)
(0.999764 -0.00501332 0)
(0.99974 -0.00492484 0)
(0.999716 -0.00483287 0)
(0.999692 -0.00473828 0)
(0.99967 -0.00464189 0)
(0.999648 -0.00454444 0)
(0.999629 -0.00444663 0)
(0.999613 -0.00434908 0)
(0.999599 -0.00425231 0)
(0.99959 -0.00415672 0)
(0.999582 -0.00406257 0)
(0.999576 -0.00396999 0)
(0.999568 -0.00387904 0)
(0.999558 -0.00378973 0)
(0.999545 -0.00370209 0)
(0.999529 -0.00361616 0)
(0.99951 -0.00353201 0)
(0.99949 -0.00344971 0)
(0.99947 -0.00336935 0)
(0.999451 -0.00329102 0)
(0.999433 -0.00321479 0)
(0.999416 -0.00314075 0)
(0.999402 -0.00306895 0)
(0.999389 -0.00299944 0)
(0.999377 -0.00293228 0)
(0.999367 -0.00286747 0)
(0.999359 -0.00280506 0)
(0.999351 -0.00274514 0)
(1.00048 -0.000180111 0)
(1.00048 -0.00064119 0)
(1.00049 -0.00101757 0)
(1.00051 -0.00142122 0)
(1.00052 -0.00181352 0)
(1.00053 -0.00220063 0)
(1.00055 -0.00258598 0)
(1.00057 -0.00296943 0)
(1.00059 -0.00335075 0)
(1.00061 -0.00372949 0)
(1.00062 -0.00410483 0)
(1.00064 -0.00447557 0)
(1.00065 -0.00484028 0)
(1.00066 -0.00519733 0)
(1.00067 -0.00554491 0)
(1.00067 -0.00588115 0)
(1.00067 -0.00620413 0)
(1.00066 -0.00651194 0)
(1.00065 -0.00680274 0)
(1.00063 -0.00707483 0)
(1.0006 -0.00732667 0)
(1.00057 -0.00755689 0)
(1.00054 -0.0077644 0)
(1.00049 -0.00794831 0)
(1.00045 -0.00810803 0)
(1.00039 -0.00824323 0)
(1.00034 -0.00835382 0)
(1.00028 -0.00844001 0)
(1.00021 -0.0085022 0)
(1.00014 -0.00854106 0)
(1.00007 -0.00855747 0)
(1 -0.00855247 0)
(0.999925 -0.0085272 0)
(0.99985 -0.00848289 0)
(0.999774 -0.00842089 0)
(0.999698 -0.00834262 0)
(0.999622 -0.00824958 0)
(0.999547 -0.00814331 0)
(0.999473 -0.00802536 0)
(0.9994 -0.00789724 0)
(0.999329 -0.00776037 0)
(0.99926 -0.00761606 0)
(0.999192 -0.00746547 0)
(0.999127 -0.00730961 0)
(0.999064 -0.00714941 0)
(0.999003 -0.0069857 0)
(0.998945 -0.00681926 0)
(0.998889 -0.00665083 0)
(0.998834 -0.00648112 0)
(0.998781 -0.00631081 0)
(0.998729 -0.00614058 0)
(0.998677 -0.00597115 0)
(0.998628 -0.00580321 0)
(0.998583 -0.00563743 0)
(0.998542 -0.00547441 0)
(0.998506 -0.00531467 0)
(0.998475 -0.0051586 0)
(0.998448 -0.00500652 0)
(0.998425 -0.00485865 0)
(0.998405 -0.00471517 0)
(0.998386 -0.00457621 0)
(0.998369 -0.00444185 0)
(0.998353 -0.00431216 0)
(0.998337 -0.00418716 0)
(0.998322 -0.00406686 0)
(0.998307 -0.00395124 0)
(0.998293 -0.00384028 0)
(0.998279 -0.00373395 0)
(0.998266 -0.00363224 0)
(1.00092 -0.000245611 0)
(1.00092 -0.000865803 0)
(1.00094 -0.00137331 0)
(1.00096 -0.00192005 0)
(1.00098 -0.0024482 0)
(1.00101 -0.00296899 0)
(1.00104 -0.00348671 0)
(1.00107 -0.00400081 0)
(1.00111 -0.00451108 0)
(1.00114 -0.00501699 0)
(1.00116 -0.0055174 0)
(1.00119 -0.00601074 0)
(1.00121 -0.00649513 0)
(1.00123 -0.00696844 0)
(1.00123 -0.00742829 0)
(1.00123 -0.00787222 0)
(1.00122 -0.00829768 0)
(1.00121 -0.00870216 0)
(1.00118 -0.00908322 0)
(1.00114 -0.00943858 0)
(1.00109 -0.00976617 0)
(1.00103 -0.0100642 0)
(1.00095 -0.0103311 0)
(1.00087 -0.0105657 0)
(1.00078 -0.0107672 0)
(1.00068 -0.0109352 0)
(1.00057 -0.0110694 0)
(1.00045 -0.0111702 0)
(1.00033 -0.0112381 0)
(1.0002 -0.011274 0)
(1.00006 -0.011279 0)
(0.999923 -0.0112545 0)
(0.999782 -0.0112021 0)
(0.99964 -0.0111235 0)
(0.999497 -0.0110205 0)
(0.999354 -0.0108951 0)
(0.999213 -0.0107493 0)
(0.999073 -0.0105849 0)
(0.998936 -0.0104039 0)
(0.998802 -0.010208 0)
(0.998672 -0.00999922 0)
(0.998545 -0.00977924 0)
(0.998423 -0.00954988 0)
(0.998305 -0.00931295 0)
(0.998192 -0.00907022 0)
(0.998083 -0.00882339 0)
(0.99798 -0.00857407 0)
(0.997882 -0.00832372 0)
(0.997791 -0.00807365 0)
(0.997705 -0.007825 0)
(0.997627 -0.00757873 0)
(0.997554 -0.0073356 0)
(0.997487 -0.0070962 0)
(0.997422 -0.00686099 0)
(0.99736 -0.00663037 0)
(0.997298 -0.00640468 0)
(0.997236 -0.00618425 0)
(0.997174 -0.00596939 0)
(0.997114 -0.00576034 0)
(0.997056 -0.00555732 0)
(0.997001 -0.00536051 0)
(0.99695 -0.00517002 0)
(0.996902 -0.00498593 0)
(0.996857 -0.0048083 0)
(0.996816 -0.00463714 0)
(0.996778 -0.00447245 0)
(0.996743 -0.00431419 0)
(0.996711 -0.00416234 0)
(0.996681 -0.0040169 0)
(1.00142 -0.000306726 0)
(1.00143 -0.00107553 0)
(1.00146 -0.00170839 0)
(1.00149 -0.00239003 0)
(1.00153 -0.00304534 0)
(1.00157 -0.00369189 0)
(1.00161 -0.00433393 0)
(1.00166 -0.00497054 0)
(1.00171 -0.00560168 0)
(1.00176 -0.0062268 0)
(1.0018 -0.00684446 0)
(1.00184 -0.00745282 0)
(1.00187 -0.00804963 0)
(1.00189 -0.00863232 0)
(1.0019 -0.00919803 0)
(1.00189 -0.00974375 0)
(1.00188 -0.0102664 0)
(1.00185 -0.0107629 0)
(1.0018 -0.0112302 0)
(1.00174 -0.0116655 0)
(1.00166 -0.0120662 0)
(1.00156 -0.01243 0)
(1.00144 -0.012755 0)
(1.00131 -0.0130395 0)
(1.00117 -0.0132825 0)
(1.00101 -0.0134832 0)
(1.00083 -0.0136415 0)
(1.00065 -0.0137575 0)
(1.00045 -0.0138318 0)
(1.00024 -0.0138654 0)
(1.00003 -0.0138596 0)
(0.999808 -0.0138162 0)
(0.999585 -0.013737 0)
(0.999358 -0.0136242 0)
(0.999131 -0.0134801 0)
(0.998903 -0.0133072 0)
(0.998677 -0.0131079 0)
(0.998454 -0.0128849 0)
(0.998234 -0.0126408 0)
(0.998018 -0.0123783 0)
(0.997807 -0.0121 0)
(0.997602 -0.0118083 0)
(0.997403 -0.0115057 0)
(0.997211 -0.0111943 0)
(0.997025 -0.0108761 0)
(0.996847 -0.0105527 0)
(0.996676 -0.0102258 0)
(0.996512 -0.0098967 0)
(0.996355 -0.00956686 0)
(0.996205 -0.0092375 0)
(0.996061 -0.0089098 0)
(0.995922 -0.0085849 0)
(0.99579 -0.0082639 0)
(0.995665 -0.00794782 0)
(0.995548 -0.00763754 0)
(0.99544 -0.00733381 0)
(0.99534 -0.00703724 0)
(0.99525 -0.00674829 0)
(0.995166 -0.00646733 0)
(0.99509 -0.00619463 0)
(0.995018 -0.00593042 0)
(0.994952 -0.00567486 0)
(0.99489 -0.00542807 0)
(0.994831 -0.00519011 0)
(0.994776 -0.00496101 0)
(0.994724 -0.00474074 0)
(0.994676 -0.00452926 0)
(0.99463 -0.00432652 0)
(0.994587 -0.00413246 0)
(1.00198 -0.000364513 0)
(1.002 -0.00127408 0)
(1.00204 -0.00202784 0)
(1.00207 -0.00283793 0)
(1.00212 -0.00361422 0)
(1.00218 -0.00438122 0)
(1.00224 -0.0051424 0)
(1.00231 -0.0058966 0)
(1.00238 -0.00664419 0)
(1.00244 -0.00738457 0)
(1.0025 -0.00811611 0)
(1.00255 -0.00883677 0)
(1.00259 -0.00954404 0)
(1.00262 -0.010235 0)
(1.00263 -0.0109063 0)
(1.00263 -0.0115546 0)
(1.00261 -0.0121763 0)
(1.00256 -0.0127676 0)
(1.0025 -0.0133252 0)
(1.00241 -0.0138456 0)
(1.0023 -0.0143256 0)
(1.00216 -0.0147624 0)
(1.002 -0.0151536 0)
(1.00181 -0.0154972 0)
(1.0016 -0.0157915 0)
(1.00138 -0.0160356 0)
(1.00113 -0.016229 0)
(1.00086 -0.0163716 0)
(1.00058 -0.0164641 0)
(1.00028 -0.0165074 0)
(0.999974 -0.0165029 0)
(0.999658 -0.0164524 0)
(0.999334 -0.0163583 0)
(0.999006 -0.0162229 0)
(0.998675 -0.016049 0)
(0.998344 -0.0158394 0)
(0.998015 -0.0155971 0)
(0.997688 -0.0153252 0)
(0.997366 -0.0150268 0)
(0.997051 -0.0147049 0)
(0.996742 -0.0143623 0)
(0.996442 -0.0140019 0)
(0.996151 -0.0136265 0)
(0.99587 -0.0132387 0)
(0.9956 -0.0128413 0)
(0.99534 -0.0124367 0)
(0.995091 -0.0120275 0)
(0.994855 -0.0116158 0)
(0.99463 -0.0112037 0)
(0.994419 -0.010793 0)
(0.99422 -0.0103853 0)
(0.994034 -0.00998178 0)
(0.99386 -0.00958368 0)
(0.993696 -0.00919191 0)
(0.993541 -0.00880729 0)
(0.993392 -0.0084306 0)
(0.993249 -0.00806251 0)
(0.993112 -0.00770365 0)
(0.992981 -0.00735452 0)
(0.992856 -0.00701553 0)
(0.992738 -0.00668699 0)
(0.992628 -0.00636912 0)
(0.992525 -0.00606205 0)
(0.992429 -0.00576586 0)
(0.99234 -0.00548057 0)
(0.992257 -0.00520616 0)
(0.99218 -0.00494257 0)
(0.992109 -0.00468973 0)
(0.992043 -0.00444761 0)
(1.0026 -0.000421193 0)
(1.00262 -0.00146714 0)
(1.00266 -0.00233859 0)
(1.00271 -0.00327368 0)
(1.00278 -0.00416804 0)
(1.00285 -0.00505328 0)
(1.00293 -0.00593165 0)
(1.00302 -0.0068021 0)
(1.0031 -0.00766548 0)
(1.00319 -0.00852113 0)
(1.00326 -0.00936737 0)
(1.00333 -0.0102021 0)
(1.00339 -0.0110225 0)
(1.00342 -0.0118255 0)
(1.00344 -0.0126075 0)
(1.00344 -0.0133646 0)
(1.00341 -0.0140928 0)
(1.00336 -0.0147881 0)
(1.00327 -0.0154463 0)
(1.00316 -0.0160634 0)
(1.00301 -0.0166359 0)
(1.00283 -0.0171602 0)
(1.00262 -0.0176332 0)
(1.00238 -0.0180526 0)
(1.00211 -0.018416 0)
(1.0018 -0.0187221 0)
(1.00147 -0.01897 0)
(1.00112 -0.0191592 0)
(1.00074 -0.01929 0)
(1.00034 -0.0193632 0)
(0.999928 -0.0193802 0)
(0.999501 -0.0193427 0)
(0.999063 -0.019253 0)
(0.998619 -0.0191137 0)
(0.99817 -0.0189277 0)
(0.99772 -0.0186982 0)
(0.997271 -0.0184286 0)
(0.996825 -0.0181223 0)
(0.996386 -0.0177829 0)
(0.995954 -0.0174142 0)
(0.995532 -0.0170197 0)
(0.995121 -0.0166031 0)
(0.994721 -0.0161679 0)
(0.994335 -0.0157174 0)
(0.993962 -0.0152546 0)
(0.993604 -0.0147823 0)
(0.993261 -0.014303 0)
(0.992932 -0.013819 0)
(0.992618 -0.0133325 0)
(0.992319 -0.0128454 0)
(0.992032 -0.0123596 0)
(0.991759 -0.011877 0)
(0.991499 -0.0113992 0)
(0.991253 -0.010928 0)
(0.991021 -0.0104645 0)
(0.990805 -0.0100101 0)
(0.990604 -0.00956566 0)
(0.990418 -0.00913194 0)
(0.990247 -0.00870957 0)
(0.990087 -0.00829903 0)
(0.989939 -0.00790075 0)
(0.989801 -0.00751505 0)
(0.989671 -0.00714216 0)
(0.98955 -0.00678227 0)
(0.989436 -0.00643546 0)
(0.989329 -0.00610175 0)
(0.989229 -0.00578112 0)
(0.989136 -0.00547353 0)
(0.989049 -0.0051789 0)
(1.00327 -0.000478214 0)
(1.00329 -0.00165841 0)
(1.00335 -0.00264547 0)
(1.00341 -0.0037043 0)
(1.00349 -0.00471591 0)
(1.00359 -0.00571917 0)
(1.00369 -0.00671495 0)
(1.0038 -0.00770253 0)
(1.0039 -0.00868331 0)
(1.00401 -0.00965662 0)
(1.00411 -0.0106208 0)
(1.00419 -0.0115738 0)
(1.00427 -0.0125128 0)
(1.00432 -0.0134344 0)
(1.00435 -0.0143348 0)
(1.00435 -0.0152098 0)
(1.00432 -0.0160552 0)
(1.00426 -0.0168663 0)
(1.00416 -0.0176386 0)
(1.00402 -0.0183676 0)
(1.00384 -0.019049 0)
(1.00362 -0.0196787 0)
(1.00335 -0.020253 0)
(1.00305 -0.0207688 0)
(1.00271 -0.0212231 0)
(1.00233 -0.0216139 0)
(1.00191 -0.0219397 0)
(1.00146 -0.0221995 0)
(1.00098 -0.022393 0)
(1.00047 -0.0225206 0)
(0.999944 -0.0225833 0)
(0.999396 -0.0225827 0)
(0.998833 -0.0225208 0)
(0.998259 -0.0224004 0)
(0.997678 -0.0222244 0)
(0.997094 -0.0219962 0)
(0.99651 -0.0217195 0)
(0.99593 -0.0213981 0)
(0.995356 -0.021036 0)
(0.994791 -0.0206373 0)
(0.994238 -0.0202058 0)
(0.993698 -0.0197455 0)
(0.993173 -0.0192602 0)
(0.992665 -0.0187537 0)
(0.992174 -0.0182297 0)
(0.991703 -0.0176917 0)
(0.99125 -0.0171433 0)
(0.990818 -0.0165877 0)
(0.990405 -0.0160281 0)
(0.990014 -0.0154673 0)
(0.989645 -0.0149077 0)
(0.989296 -0.0143515 0)
(0.988969 -0.0138005 0)
(0.988661 -0.0132561 0)
(0.98837 -0.0127199 0)
(0.988094 -0.012193 0)
(0.987831 -0.0116768 0)
(0.987581 -0.0111721 0)
(0.987344 -0.0106799 0)
(0.98712 -0.0102011 0)
(0.986909 -0.00973603 0)
(0.986711 -0.00928527 0)
(0.986526 -0.00884912 0)
(0.986353 -0.00842776 0)
(0.986193 -0.00802134 0)
(0.986043 -0.0076299 0)
(0.985905 -0.00725344 0)
(0.985776 -0.00689193 0)
(0.985656 -0.00654536 0)
(1.00399 -0.000535453 0)
(1.00402 -0.00184769 0)
(1.00408 -0.00294843 0)
(1.00416 -0.00412977 0)
(1.00426 -0.00525771 0)
(1.00438 -0.00637877 0)
(1.0045 -0.00749216 0)
(1.00464 -0.00859776 0)
(1.00477 -0.00969754 0)
(1.0049 -0.0107909 0)
(1.00503 -0.0118763 0)
(1.00514 -0.0129518 0)
(1.00523 -0.0140146 0)
(1.0053 -0.0150611 0)
(1.00534 -0.0160876 0)
(1.00535 -0.0170896 0)
(1.00533 -0.0180624 0)
(1.00526 -0.0190013 0)
(1.00515 -0.0199011 0)
(1.00499 -0.0207569 0)
(1.00478 -0.0215638 0)
(1.00452 -0.022317 0)
(1.00421 -0.0230122 0)
(1.00385 -0.0236452 0)
(1.00344 -0.0242127 0)
(1.00298 -0.0247115 0)
(1.00248 -0.0251394 0)
(1.00193 -0.0254947 0)
(1.00134 -0.0257764 0)
(1.00072 -0.0259842 0)
(1.00007 -0.0261187 0)
(0.999391 -0.0261809 0)
(0.998693 -0.0261726 0)
(0.997978 -0.0260962 0)
(0.997253 -0.0259546 0)
(0.996522 -0.0257511 0)
(0.995788 -0.0254895 0)
(0.995058 -0.0251738 0)
(0.994334 -0.0248082 0)
(0.993619 -0.0243973 0)
(0.992918 -0.0239456 0)
(0.992232 -0.0234577 0)
(0.991564 -0.0229385 0)
(0.990915 -0.0223924 0)
(0.990289 -0.0218238 0)
(0.989684 -0.0212369 0)
(0.989103 -0.0206353 0)
(0.988546 -0.0200224 0)
(0.988014 -0.0194016 0)
(0.987505 -0.0187757 0)
(0.987019 -0.0181476 0)
(0.986555 -0.0175199 0)
(0.986113 -0.0168952 0)
(0.985694 -0.016276 0)
(0.985299 -0.0156644 0)
(0.984928 -0.0150621 0)
(0.984582 -0.0144708 0)
(0.984261 -0.0138916 0)
(0.983962 -0.0133257 0)
(0.983684 -0.0127738 0)
(0.983424 -0.0122368 0)
(0.983182 -0.0117154 0)
(0.982955 -0.01121 0)
(0.982743 -0.0107211 0)
(0.982544 -0.010249 0)
(0.982358 -0.00979386 0)
(0.982184 -0.0093558 0)
(0.982021 -0.00893487 0)
(0.981869 -0.00853106 0)
(1.00475 -0.000591731 0)
(1.00478 -0.0020318 0)
(1.00486 -0.00324309 0)
(1.00495 -0.00454395 0)
(1.00507 -0.00578553 0)
(1.00521 -0.00702241 0)
(1.00537 -0.00825186 0)
(1.00553 -0.00947458 0)
(1.00569 -0.0106931 0)
(1.00585 -0.0119069 0)
(1.00601 -0.0131148 0)
(1.00615 -0.014315 0)
(1.00627 -0.0155047 0)
(1.00636 -0.0166805 0)
(1.00642 -0.0178384 0)
(1.00645 -0.018974 0)
(1.00643 -0.0200824 0)
(1.00636 -0.0211584 0)
(1.00624 -0.0221968 0)
(1.00607 -0.0231919 0)
(1.00584 -0.0241384 0)
(1.00555 -0.0250309 0)
(1.0052 -0.0258642 0)
(1.00479 -0.0266335 0)
(1.00431 -0.0273344 0)
(1.00378 -0.027963 0)
(1.00319 -0.0285161 0)
(1.00254 -0.0289909 0)
(1.00185 -0.0293858 0)
(1.00111 -0.0296994 0)
(1.00033 -0.0299316 0)
(0.999521 -0.0300826 0)
(0.998681 -0.0301537 0)
(0.997818 -0.0301468 0)
(0.996939 -0.0300644 0)
(0.996049 -0.0299097 0)
(0.995153 -0.0296863 0)
(0.994258 -0.0293985 0)
(0.993368 -0.0290506 0)
(0.992488 -0.0286475 0)
(0.99162 -0.0281942 0)
(0.99077 -0.0276956 0)
(0.989941 -0.0271565 0)
(0.989134 -0.026582 0)
(0.988352 -0.0259767 0)
(0.987597 -0.0253454 0)
(0.986871 -0.0246929 0)
(0.986174 -0.0240237 0)
(0.985507 -0.0233422 0)
(0.984872 -0.0226526 0)
(0.984269 -0.0219584 0)
(0.983699 -0.0212632 0)
(0.983161 -0.0205696 0)
(0.982653 -0.0198802 0)
(0.982174 -0.0191972 0)
(0.98172 -0.0185227 0)
(0.981289 -0.0178585 0)
(0.980879 -0.0172064 0)
(0.980491 -0.016568 0)
(0.980125 -0.0159446 0)
(0.97978 -0.0153372 0)
(0.979456 -0.0147466 0)
(0.979154 -0.0141735 0)
(0.978871 -0.0136185 0)
(0.978608 -0.0130818 0)
(0.978363 -0.0125637 0)
(0.978134 -0.0120644 0)
(0.977922 -0.0115841 0)
(0.977724 -0.0111227 0)
(1.00554 -0.000645539 0)
(1.00558 -0.00220651 0)
(1.00567 -0.00352324 0)
(1.00578 -0.00493808 0)
(1.00592 -0.00628821 0)
(1.00609 -0.00763645 0)
(1.00627 -0.0089779 0)
(1.00646 -0.0103143 0)
(1.00666 -0.0116486 0)
(1.00685 -0.0129807 0)
(1.00704 -0.0143096 0)
(1.00721 -0.0156338 0)
(1.00736 -0.0169505 0)
(1.00748 -0.0182567 0)
(1.00757 -0.0195483 0)
(1.00761 -0.0208208 0)
(1.00761 -0.0220694 0)
(1.00755 -0.0232886 0)
(1.00744 -0.0244729 0)
(1.00726 -0.0256165 0)
(1.00702 -0.0267133 0)
(1.0067 -0.0277574 0)
(1.00632 -0.0287429 0)
(1.00586 -0.0296643 0)
(1.00533 -0.0305162 0)
(1.00473 -0.0312937 0)
(1.00406 -0.0319926 0)
(1.00332 -0.0326092 0)
(1.00252 -0.0331404 0)
(1.00167 -0.0335842 0)
(1.00077 -0.0339391 0)
(0.999819 -0.0342045 0)
(0.998833 -0.034381 0)
(0.997816 -0.0344696 0)
(0.996775 -0.0344723 0)
(0.995717 -0.0343919 0)
(0.994648 -0.0342318 0)
(0.993576 -0.0339959 0)
(0.992505 -0.0336888 0)
(0.991443 -0.0333152 0)
(0.990394 -0.0328804 0)
(0.989362 -0.0323897 0)
(0.988353 -0.0318488 0)
(0.987368 -0.0312634 0)
(0.986413 -0.0306392 0)
(0.985488 -0.0299817 0)
(0.984595 -0.0292962 0)
(0.983737 -0.0285876 0)
(0.982914 -0.0278605 0)
(0.982125 -0.0271192 0)
(0.981372 -0.0263677 0)
(0.980652 -0.0256099 0)
(0.979965 -0.0248495 0)
(0.979311 -0.0240901 0)
(0.978692 -0.0233349 0)
(0.978109 -0.0225868 0)
(0.977563 -0.0218482 0)
(0.977053 -0.021121 0)
(0.976577 -0.020407 0)
(0.976133 -0.0197077 0)
(0.975718 -0.0190246 0)
(0.975329 -0.0183587 0)
(0.974965 -0.0177111 0)
(0.974624 -0.0170827 0)
(0.974304 -0.0164742 0)
(0.974005 -0.015886 0)
(0.973725 -0.0153184 0)
(0.973463 -0.0147719 0)
(0.973219 -0.0142465 0)
(1.00635 -0.000695533 0)
(1.0064 -0.00236792 0)
(1.0065 -0.00378299 0)
(1.00663 -0.00530395 0)
(1.0068 -0.00675525 0)
(1.00699 -0.00820805 0)
(1.0072 -0.0096551 0)
(1.00743 -0.0110993 0)
(1.00766 -0.0125441 0)
(1.00789 -0.0139897 0)
(1.00811 -0.0154355 0)
(1.00832 -0.0168801 0)
(1.0085 -0.0183213 0)
(1.00866 -0.019756 0)
(1.00878 -0.0211804 0)
(1.00885 -0.0225901 0)
(1.00887 -0.0239802 0)
(1.00883 -0.0253453 0)
(1.00873 -0.0266796 0)
(1.00856 -0.027977 0)
(1.00831 -0.0292313 0)
(1.00798 -0.0304359 0)
(1.00757 -0.0315844 0)
(1.00708 -0.0326704 0)
(1.0065 -0.0336878 0)
(1.00584 -0.0346307 0)
(1.0051 -0.0354937 0)
(1.00428 -0.0362719 0)
(1.00339 -0.0369611 0)
(1.00242 -0.037558 0)
(1.0014 -0.0380599 0)
(1.00031 -0.0384652 0)
(0.999181 -0.038773 0)
(0.998007 -0.0389837 0)
(0.996799 -0.0390982 0)
(0.995566 -0.0391186 0)
(0.994315 -0.0390475 0)
(0.993055 -0.0388886 0)
(0.991792 -0.0386461 0)
(0.990534 -0.0383247 0)
(0.989287 -0.0379298 0)
(0.988057 -0.0374669 0)
(0.98685 -0.036942 0)
(0.985669 -0.036361 0)
(0.98452 -0.03573 0)
(0.983405 -0.0350548 0)
(0.982327 -0.0343415 0)
(0.981288 -0.0335962 0)
(0.98029 -0.0328248 0)
(0.979336 -0.0320329 0)
(0.978425 -0.0312259 0)
(0.97756 -0.0304087 0)
(0.97674 -0.0295856 0)
(0.975965 -0.0287603 0)
(0.975232 -0.0279363 0)
(0.974537 -0.0271166 0)
(0.973877 -0.0263043 0)
(0.973249 -0.0255021 0)
(0.972654 -0.0247125 0)
(0.972091 -0.0239378 0)
(0.971561 -0.0231796 0)
(0.971064 -0.0224395 0)
(0.970598 -0.0217187 0)
(0.970162 -0.0210182 0)
(0.969755 -0.0203387 0)
(0.969375 -0.0196809 0)
(0.969021 -0.0190453 0)
(0.968692 -0.0184323 0)
(0.968384 -0.0178422 0)
(1.00718 -0.00074086 0)
(1.00723 -0.00251347 0)
(1.00735 -0.00401811 0)
(1.0075 -0.00563557 0)
(1.00769 -0.0071791 0)
(1.00791 -0.00872797 0)
(1.00815 -0.0102725 0)
(1.00841 -0.0118169 0)
(1.00868 -0.013365 0)
(1.00895 -0.0149174 0)
(1.00922 -0.0164739 0)
(1.00947 -0.0180336 0)
(1.00969 -0.0195945 0)
(1.00989 -0.0211536 0)
(1.01004 -0.0227075 0)
(1.01015 -0.024252 0)
(1.0102 -0.0257823 0)
(1.01019 -0.0272931 0)
(1.01011 -0.0287786 0)
(1.00995 -0.0302326 0)
(1.00971 -0.0316485 0)
(1.00938 -0.0330195 0)
(1.00896 -0.0343388 0)
(1.00845 -0.0355992 0)
(1.00784 -0.0367938 0)
(1.00713 -0.0379159 0)
(1.00633 -0.0389588 0)
(1.00543 -0.0399166 0)
(1.00445 -0.0407837 0)
(1.00338 -0.0415555 0)
(1.00224 -0.0422279 0)
(1.00103 -0.0427977 0)
(0.999751 -0.0432629 0)
(0.99842 -0.0436223 0)
(0.997044 -0.0438758 0)
(0.995632 -0.0440242 0)
(0.994193 -0.0440696 0)
(0.992736 -0.0440148 0)
(0.99127 -0.0438635 0)
(0.989803 -0.0436203 0)
(0.988343 -0.0432903 0)
(0.986898 -0.0428792 0)
(0.985475 -0.0423932 0)
(0.984079 -0.0418388 0)
(0.982715 -0.0412228 0)
(0.981388 -0.040552 0)
(0.980102 -0.0398334 0)
(0.978859 -0.0390734 0)
(0.977663 -0.0382782 0)
(0.976513 -0.0374536 0)
(0.975411 -0.0366053 0)
(0.974355 -0.0357385 0)
(0.973346 -0.0348586 0)
(0.972382 -0.0339705 0)
(0.971466 -0.0330792 0)
(0.9706 -0.0321888 0)
(0.969785 -0.0313032 0)
(0.969022 -0.0304256 0)
(0.968307 -0.0295586 0)
(0.967638 -0.0287049 0)
(0.967011 -0.0278665 0)
(0.966422 -0.0270456 0)
(0.96587 -0.026244 0)
(0.965352 -0.0254631 0)
(0.964866 -0.0247042 0)
(0.96441 -0.0239684 0)
(0.963984 -0.0232563 0)
(0.963585 -0.0225688 0)
(0.963212 -0.0219062 0)
(1.00801 -0.000781216 0)
(1.00807 -0.00264207 0)
(1.0082 -0.00422647 0)
(1.00837 -0.00592992 0)
(1.00858 -0.00755593 0)
(1.00884 -0.00919147 0)
(1.00911 -0.0108245 0)
(1.00941 -0.0124604 0)
(1.00972 -0.0141036 0)
(1.01004 -0.0157551 0)
(1.01034 -0.0174151 0)
(1.01064 -0.0190831 0)
(1.01091 -0.0207573 0)
(1.01115 -0.0224353 0)
(1.01135 -0.0241139 0)
(1.0115 -0.0257891 0)
(1.01159 -0.0274565 0)
(1.01162 -0.0291108 0)
(1.01157 -0.0307465 0)
(1.01144 -0.0323573 0)
(1.01121 -0.0339366 0)
(1.01089 -0.0354775 0)
(1.01047 -0.0369726 0)
(1.00995 -0.0384145 0)
(1.00932 -0.0397955 0)
(1.00858 -0.0411079 0)
(1.00773 -0.0423444 0)
(1.00678 -0.0434975 0)
(1.00572 -0.0445607 0)
(1.00456 -0.0455275 0)
(1.00331 -0.0463924 0)
(1.00197 -0.0471508 0)
(1.00056 -0.0477989 0)
(0.999078 -0.0483339 0)
(0.997535 -0.0487544 0)
(0.995944 -0.0490598 0)
(0.994313 -0.0492509 0)
(0.992653 -0.0493294 0)
(0.990976 -0.0492982 0)
(0.98929 -0.0491611 0)
(0.987605 -0.0489228 0)
(0.985931 -0.0485886 0)
(0.984275 -0.0481648 0)
(0.982645 -0.0476578 0)
(0.981047 -0.0470744 0)
(0.979489 -0.0464218 0)
(0.977974 -0.0457073 0)
(0.976506 -0.0449383 0)
(0.97509 -0.0441222 0)
(0.973728 -0.0432666 0)
(0.972423 -0.0423788 0)
(0.971177 -0.0414657 0)
(0.969991 -0.0405335 0)
(0.968866 -0.0395879 0)
(0.967799 -0.0386337 0)
(0.966785 -0.0376755 0)
(0.965822 -0.0367177 0)
(0.964905 -0.0357646 0)
(0.964034 -0.03482 0)
(0.963209 -0.0338874 0)
(0.96243 -0.0329697 0)
(0.961698 -0.0320694 0)
(0.961012 -0.0311886 0)
(0.960369 -0.030329 0)
(0.959767 -0.029492 0)
(0.959206 -0.028679 0)
(0.958681 -0.0278909 0)
(0.958191 -0.0271286 0)
(0.957734 -0.0263928 0)
(1.00883 -0.00081666 0)
(1.0089 -0.00275384 0)
(1.00904 -0.00440788 0)
(1.00923 -0.0061867 0)
(1.00948 -0.00788534 0)
(1.00976 -0.00959798 0)
(1.01007 -0.0113102 0)
(1.01041 -0.0130288 0)
(1.01077 -0.0147585 0)
(1.01112 -0.0165008 0)
(1.01148 -0.0182565 0)
(1.01183 -0.0200254 0)
(1.01215 -0.0218061 0)
(1.01244 -0.0235965 0)
(1.01269 -0.0253939 0)
(1.01289 -0.0271946 0)
(1.01303 -0.0289945 0)
(1.0131 -0.0307886 0)
(1.01309 -0.0325717 0)
(1.01299 -0.0343376 0)
(1.0128 -0.03608 0)
(1.0125 -0.0377917 0)
(1.0121 -0.0394654 0)
(1.01158 -0.0410933 0)
(1.01094 -0.0426671 0)
(1.01018 -0.0441787 0)
(1.0093 -0.0456196 0)
(1.0083 -0.0469815 0)
(1.00719 -0.0482563 0)
(1.00595 -0.0494363 0)
(1.00461 -0.0505144 0)
(1.00316 -0.0514842 0)
(1.00162 -0.0523402 0)
(0.999997 -0.0530778 0)
(0.998294 -0.0536936 0)
(0.996527 -0.0541856 0)
(0.994705 -0.0545527 0)
(0.992841 -0.0547952 0)
(0.990947 -0.0549149 0)
(0.989034 -0.0549144 0)
(0.987114 -0.0547978 0)
(0.985197 -0.0545701 0)
(0.983293 -0.054237 0)
(0.981411 -0.0538053 0)
(0.97956 -0.0532824 0)
(0.977747 -0.0526759 0)
(0.97598 -0.051994 0)
(0.974262 -0.0512449 0)
(0.9726 -0.0504364 0)
(0.970996 -0.0495761 0)
(0.969451 -0.0486713 0)
(0.967967 -0.0477292 0)
(0.966543 -0.0467566 0)
(0.96518 -0.0457606 0)
(0.963879 -0.0447479 0)
(0.962644 -0.0437251 0)
(0.961478 -0.0426978 0)
(0.96038 -0.0416709 0)
(0.95935 -0.0406486 0)
(0.958383 -0.0396348 0)
(0.957474 -0.0386329 0)
(0.95662 -0.0376464 0)
(0.955817 -0.0366779 0)
(0.955062 -0.0357302 0)
(0.954353 -0.0348054 0)
(0.953688 -0.0339051 0)
(0.953065 -0.0330311 0)
(0.952482 -0.0321844 0)
(0.951936 -0.0313662 0)
(1.00964 -0.000847401 0)
(1.00972 -0.00284957 0)
(1.00988 -0.00456354 0)
(1.01009 -0.00640757 0)
(1.01036 -0.00816939 0)
(1.01068 -0.00994983 0)
(1.01103 -0.0117323 0)
(1.01141 -0.0135248 0)
(1.01181 -0.0153326 0)
(1.01221 -0.0171576 0)
(1.01262 -0.0190011 0)
(1.01302 -0.0208632 0)
(1.01339 -0.0227431 0)
(1.01374 -0.0246391 0)
(1.01405 -0.0265487 0)
(1.0143 -0.0284688 0)
(1.01449 -0.0303956 0)
(1.01462 -0.0323246 0)
(1.01465 -0.0342508 0)
(1.0146 -0.0361686 0)
(1.01445 -0.0380716 0)
(1.01419 -0.0399531 0)
(1.01382 -0.0418057 0)
(1.01332 -0.0436214 0)
(1.01269 -0.0453919 0)
(1.01193 -0.0471084 0)
(1.01104 -0.0487618 0)
(1.01001 -0.0503429 0)
(1.00885 -0.0518426 0)
(1.00756 -0.0532516 0)
(1.00614 -0.0545614 0)
(1.0046 -0.0557637 0)
(1.00295 -0.0568512 0)
(1.00119 -0.0578172 0)
(0.999339 -0.0586565 0)
(0.997403 -0.0593647 0)
(0.995396 -0.059939 0)
(0.993329 -0.0603779 0)
(0.991218 -0.0606814 0)
(0.989073 -0.0608508 0)
(0.986909 -0.0608888 0)
(0.984739 -0.0607994 0)
(0.982573 -0.0605876 0)
(0.980424 -0.0602596 0)
(0.978301 -0.0598221 0)
(0.976215 -0.0592828 0)
(0.974174 -0.0586496 0)
(0.972185 -0.0579311 0)
(0.970254 -0.0571363 0)
(0.968386 -0.0562743 0)
(0.966587 -0.0553547 0)
(0.964859 -0.0543867 0)
(0.963207 -0.0533791 0)
(0.961634 -0.0523398 0)
(0.960136 -0.051276 0)
(0.958711 -0.0501939 0)
(0.957354 -0.0491 0)
(0.956061 -0.0480003 0)
(0.954829 -0.0469006 0)
(0.953661 -0.0458062 0)
(0.952557 -0.0447217 0)
(0.951517 -0.043651 0)
(0.950539 -0.0425976 0)
(0.949623 -0.0415642 0)
(0.948764 -0.0405535 0)
(0.947961 -0.0395675 0)
(0.947209 -0.0386081 0)
(0.946507 -0.0376769 0)
(0.945851 -0.0367753 0)
(1.01044 -0.00087371 0)
(1.01052 -0.00293042 0)
(1.0107 -0.00469543 0)
(1.01093 -0.00659526 0)
(1.01123 -0.00841144 0)
(1.01158 -0.010251 0)
(1.01197 -0.0120951 0)
(1.01239 -0.0139533 0)
(1.01284 -0.0158312 0)
(1.0133 -0.0177309 0)
(1.01376 -0.0196544 0)
(1.01421 -0.0216022 0)
(1.01464 -0.0235739 0)
(1.01505 -0.0255682 0)
(1.01541 -0.0275831 0)
(1.01573 -0.0296159 0)
(1.01598 -0.0316632 0)
(1.01616 -0.0337211 0)
(1.01626 -0.035785 0)
(1.01627 -0.0378497 0)
(1.01617 -0.0399093 0)
(1.01595 -0.0419573 0)
(1.01562 -0.0439867 0)
(1.01516 -0.0459897 0)
(1.01456 -0.0479578 0)
(1.01382 -0.0498821 0)
(1.01293 -0.0517531 0)
(1.0119 -0.0535609 0)
(1.01071 -0.0552954 0)
(1.00938 -0.0569462 0)
(1.00791 -0.0585033 0)
(1.00629 -0.0599568 0)
(1.00454 -0.0612973 0)
(1.00267 -0.0625162 0)
(1.00068 -0.0636058 0)
(0.998589 -0.0645598 0)
(0.996405 -0.0653728 0)
(0.994142 -0.0660412 0)
(0.991816 -0.0665629 0)
(0.989439 -0.0669371 0)
(0.987028 -0.0671649 0)
(0.984597 -0.0672488 0)
(0.982159 -0.067193 0)
(0.979728 -0.0670028 0)
(0.977316 -0.0666849 0)
(0.974936 -0.0662472 0)
(0.972598 -0.0656983 0)
(0.970311 -0.0650474 0)
(0.968083 -0.064304 0)
(0.96592 -0.0634775 0)
(0.963827 -0.0625771 0)
(0.961808 -0.0616115 0)
(0.959864 -0.0605898 0)
(0.957995 -0.0595209 0)
(0.956205 -0.0584143 0)
(0.954497 -0.0572789 0)
(0.952877 -0.0561232 0)
(0.951348 -0.0549546 0)
(0.949908 -0.0537793 0)
(0.948553 -0.0526032 0)
(0.947278 -0.0514316 0)
(0.946077 -0.0502695 0)
(0.944946 -0.0491214 0)
(0.943881 -0.0479914 0)
(0.94288 -0.0468831 0)
(0.94194 -0.0457994 0)
(0.941058 -0.0447428 0)
(0.940232 -0.0437155 0)
(0.939459 -0.0427195 0)
(1.01121 -0.000895945 0)
(1.01131 -0.00299778 0)
(1.0115 -0.00480583 0)
(1.01175 -0.00675295 0)
(1.01208 -0.00861545 0)
(1.01247 -0.0105061 0)
(1.0129 -0.0124042 0)
(1.01336 -0.0143203 0)
(1.01386 -0.0162604 0)
(1.01436 -0.0182274 0)
(1.01488 -0.0202234 0)
(1.01539 -0.0222495 0)
(1.01588 -0.0243056 0)
(1.01635 -0.0263909 0)
(1.01678 -0.0285039 0)
(1.01716 -0.0306422 0)
(1.01748 -0.032803 0)
(1.01773 -0.0349829 0)
(1.01789 -0.0371779 0)
(1.01796 -0.0393832 0)
(1.01793 -0.0415936 0)
(1.01777 -0.0438031 0)
(1.01749 -0.046005 0)
(1.01708 -0.048192 0)
(1.01652 -0.0503559 0)
(1.01582 -0.0524879 0)
(1.01496 -0.0545782 0)
(1.01393 -0.0566166 0)
(1.01275 -0.0585924 0)
(1.0114 -0.0604944 0)
(1.00989 -0.0623111 0)
(1.00822 -0.0640312 0)
(1.0064 -0.0656434 0)
(1.00443 -0.0671371 0)
(1.00233 -0.0685023 0)
(1.0001 -0.0697301 0)
(0.997748 -0.0708127 0)
(0.9953 -0.0717438 0)
(0.992766 -0.0725186 0)
(0.990163 -0.0731342 0)
(0.987505 -0.0735894 0)
(0.984809 -0.0738847 0)
(0.982091 -0.0740225 0)
(0.979367 -0.0740067 0)
(0.976653 -0.0738428 0)
(0.973962 -0.0735373 0)
(0.971307 -0.073098 0)
(0.9687 -0.0725337 0)
(0.966152 -0.0718539 0)
(0.963671 -0.0710693 0)
(0.961266 -0.070191 0)
(0.958943 -0.0692309 0)
(0.956709 -0.0682007 0)
(0.95457 -0.0671114 0)
(0.952528 -0.0659728 0)
(0.95058 -0.0647941 0)
(0.948721 -0.0635835 0)
(0.946945 -0.0623497 0)
(0.945251 -0.0611009 0)
(0.94364 -0.059845 0)
(0.942114 -0.0585891 0)
(0.940674 -0.0573392 0)
(0.939319 -0.0561006 0)
(0.938046 -0.0548778 0)
(0.936853 -0.0536749 0)
(0.935735 -0.0524955 0)
(0.934688 -0.0513427 0)
(0.933709 -0.0502191 0)
(0.932793 -0.0491274 0)
(1.01196 -0.000914542 0)
(1.01207 -0.00305315 0)
(1.01227 -0.00489716 0)
(1.01255 -0.00688395 0)
(1.01291 -0.00878554 0)
(1.01333 -0.01072 0)
(1.0138 -0.0126648 0)