/*--------------------------------*- C++ -*----------------------------------*\
  =========                 |
  \\      /  F ield         | OpenFOAM: The Open Source CFD Toolbox
   \\    /   O peration     | Website:  https://openfoam.org
    \\  /    A nd           | Version:  10
     \\/     M anipulation  |
\*---------------------------------------------------------------------------*/
FoamFile
{
    format      ascii;
    class       volVectorField;
    location    "80";
    object      U;
}
// * * * * * * * * * * * * * * * * * * * * * * * * * * * * * * * * * * * * * //

dimensions      [0 1 -1 0 0 0 0];

internalField   nonuniform List<vector> 
66268
(
(1 -3.93605e-05 0)
(1 -0.000144587 0)
(1 -0.000231608 0)
(1 -0.000324182 0)
(1 -0.000416515 0)
(1 -0.000509467 0)
(1 -0.000603868 0)
(1 -0.000699953 0)
(1 -0.000797748 0)
(1 -0.000897188 0)
(1 -0.000998086 0)
(1 -0.00110014 0)
(1 -0.00120296 0)
(1 -0.00130608 0)
(1 -0.00140897 0)
(1 -0.00151105 0)
(1 -0.00161172 0)
(1 -0.00171039 0)
(1 -0.00180643 0)
(1 -0.00189928 0)
(1 -0.00198839 0)
(1 -0.00207326 0)
(1 -0.00215346 0)
(1 -0.0022286 0)
(1 -0.00229839 0)
(1 -0.00236257 0)
(0.999999 -0.002421 0)
(0.999999 -0.00247358 0)
(0.999999 -0.00252028 0)
(0.999999 -0.00256114 0)
(0.999999 -0.00259626 0)
(0.999999 -0.00262579 0)
(0.999999 -0.00264992 0)
(0.999999 -0.00266889 0)
(0.999999 -0.00268298 0)
(1 -0.00269247 0)
(1 -0.0026977 0)
(1 -0.00269896 0)
(1 -0.00269658 0)
(1 -0.00269083 0)
(1 -0.00268197 0)
(1 -0.00267022 0)
(1 -0.00265579 0)
(1 -0.00263888 0)
(1 -0.00261968 0)
(1 -0.00259844 0)
(0.999997 -0.00257543 0)
(0.999992 -0.00255104 0)
(0.999983 -0.00252571 0)
(0.99997 -0.00249993 0)
(0.999953 -0.00247419 0)
(0.999935 -0.00244885 0)
(0.999917 -0.00242407 0)
(0.999902 -0.00239982 0)
(0.999893 -0.00237595 0)
(0.99989 -0.00235226 0)
(0.999892 -0.0023286 0)
(0.999898 -0.00230491 0)
(0.999907 -0.00228121 0)
(0.999918 -0.00225761 0)
(0.999928 -0.00223423 0)
(0.999938 -0.0022112 0)
(0.999946 -0.00218865 0)
(0.999954 -0.00216666 0)
(0.99996 -0.00214532 0)
(0.999965 -0.00212468 0)
(0.99997 -0.00210477 0)
(0.999973 -0.00208565 0)
(0.999976 -0.00206734 0)
(1.00017 -0.000118397 0)
(1.00017 -0.000428281 0)
(1.00018 -0.000683799 0)
(1.00018 -0.000958304 0)
(1.00019 -0.0012308 0)
(1.0002 -0.00150461 0)
(1.00021 -0.00178256 0)
(1.00022 -0.00206514 0)
(1.00024 -0.00235243 0)
(1.00025 -0.00264428 0)
(1.00026 -0.00294015 0)
(1.00027 -0.0032392 0)
(1.00029 -0.0035403 0)
(1.0003 -0.00384212 0)
(1.00031 -0.00414313 0)
(1.00032 -0.00444169 0)
(1.00032 -0.00473606 0)
(1.00033 -0.0050245 0)
(1.00033 -0.00530525 0)
(1.00033 -0.00557665 0)
(1.00033 -0.00583712 0)
(1.00033 -0.0060852 0)
(1.00032 -0.00631961 0)
(1.00031 -0.00653926 0)
(1.0003 -0.00674324 0)
(1.00029 -0.00693086 0)
(1.00027 -0.00710163 0)
(1.00025 -0.00725528 0)
(1.00023 -0.00739171 0)
(1.00021 -0.00751104 0)
(1.00019 -0.00761353 0)
(1.00016 -0.00769961 0)
(1.00014 -0.00776984 0)
(1.00011 -0.00782485 0)
(1.00008 -0.00786539 0)
(1.00006 -0.00789221 0)
(1.00003 -0.00790615 0)
(0.999998 -0.00790804 0)
(0.999969 -0.00789877 0)
(0.99994 -0.00787928 0)
(0.999911 -0.00785056 0)
(0.999882 -0.00781366 0)
(0.999853 -0.00776964 0)
(0.999824 -0.00771957 0)
(0.999795 -0.00766443 0)
(0.999769 -0.00760511 0)
(0.999744 -0.00754232 0)
(0.999725 -0.0074766 0)
(0.999712 -0.00740823 0)
(0.999707 -0.00733736 0)
(0.999708 -0.00726408 0)
(0.999714 -0.00718859 0)
(0.999719 -0.00711132 0)
(0.999719 -0.00703294 0)
(0.999712 -0.00695426 0)
(0.999696 -0.00687605 0)
(0.999673 -0.00679893 0)
(0.999645 -0.00672332 0)
(0.999615 -0.00664945 0)
(0.999584 -0.00657742 0)
(0.999555 -0.00650723 0)
(0.999528 -0.00643888 0)
(0.999503 -0.00637235 0)
(0.999482 -0.00630763 0)
(0.999462 -0.00624474 0)
(0.999445 -0.0061837 0)
(0.99943 -0.00612452 0)
(0.999417 -0.00606726 0)
(0.999405 -0.00601203 0)
(1.00052 -0.000196918 0)
(1.00052 -0.000701995 0)
(1.00054 -0.00111775 0)
(1.00055 -0.00156868 0)
(1.00058 -0.00201342 0)
(1.00061 -0.00245956 0)
(1.00064 -0.00291211 0)
(1.00067 -0.00337142 0)
(1.00071 -0.00383772 0)
(1.00074 -0.00431084 0)
(1.00078 -0.00478999 0)
(1.00082 -0.00527385 0)
(1.00085 -0.00576068 0)
(1.00088 -0.00624841 0)
(1.00091 -0.00673465 0)
(1.00093 -0.00721683 0)
(1.00095 -0.00769221 0)
(1.00097 -0.00815802 0)
(1.00097 -0.0086115 0)
(1.00097 -0.00904996 0)
(1.00097 -0.00947088 0)
(1.00095 -0.00987192 0)
(1.00093 -0.010251 0)
(1.0009 -0.0106064 0)
(1.00087 -0.0109365 0)
(1.00083 -0.0112402 0)
(1.00078 -0.0115168 0)
(1.00072 -0.0117656 0)
(1.00066 -0.0119866 0)
(1.0006 -0.0121799 0)
(1.00053 -0.0123458 0)
(1.00046 -0.0124851 0)
(1.00038 -0.0125986 0)
(1.0003 -0.0126874 0)
(1.00022 -0.0127527 0)
(1.00014 -0.0127959 0)
(1.00006 -0.0128184 0)
(0.99998 -0.0128219 0)
(0.999899 -0.0128079 0)
(0.999818 -0.012778 0)
(0.999738 -0.0127337 0)
(0.99966 -0.0126763 0)
(0.999584 -0.0126073 0)
(0.99951 -0.0125276 0)
(0.999437 -0.0124384 0)
(0.999366 -0.0123406 0)
(0.999295 -0.0122355 0)
(0.999223 -0.0121239 0)
(0.999148 -0.0120073 0)
(0.999068 -0.0118867 0)
(0.998985 -0.0117636 0)
(0.998902 -0.0116389 0)
(0.998824 -0.0115135 0)
(0.998754 -0.0113877 0)
(0.998698 -0.011262 0)
(0.998653 -0.0111364 0)
(0.99862 -0.0110112 0)
(0.998595 -0.0108868 0)
(0.998574 -0.0107637 0)
(0.998557 -0.0106424 0)
(0.99854 -0.0105232 0)
(0.998522 -0.0104066 0)
(0.998505 -0.010293 0)
(0.998486 -0.0101825 0)
(0.998468 -0.0100754 0)
(0.998449 -0.0099718 0)
(0.99843 -0.00987177 0)
(0.998412 -0.00977542 0)
(0.998393 -0.0096828 0)
(1.00099 -0.000273687 0)
(1.001 -0.000965784 0)
(1.00103 -0.0015371 0)
(1.00107 -0.00215931 0)
(1.00111 -0.00276905 0)
(1.00116 -0.0033805 0)
(1.00122 -0.00399998 0)
(1.00128 -0.00462758 0)
(1.00135 -0.00526387 0)
(1.00142 -0.00590876 0)
(1.00148 -0.00656123 0)
(1.00155 -0.0072196 0)
(1.00161 -0.00788168 0)
(1.00167 -0.00854476 0)
(1.00172 -0.00920575 0)
(1.00176 -0.00986126 0)
(1.0018 -0.0105077 0)
(1.00182 -0.0111414 0)
(1.00183 -0.0117586 0)
(1.00183 -0.0123558 0)
(1.00182 -0.0129295 0)
(1.00179 -0.0134766 0)
(1.00175 -0.0139941 0)
(1.00169 -0.0144797 0)
(1.00162 -0.0149311 0)
(1.00154 -0.0153468 0)
(1.00145 -0.0157255 0)
(1.00135 -0.0160665 0)
(1.00123 -0.0163695 0)
(1.00111 -0.0166344 0)
(1.00098 -0.0168617 0)
(1.00084 -0.0170523 0)
(1.0007 -0.0172072 0)
(1.00055 -0.0173278 0)
(1.00041 -0.0174157 0)
(1.00025 -0.0174726 0)
(1.0001 -0.0175002 0)
(0.999947 -0.0175006 0)
(0.999794 -0.0174755 0)
(0.999643 -0.0174271 0)
(0.999494 -0.0173571 0)
(0.999348 -0.0172678 0)
(0.999205 -0.0171613 0)
(0.999065 -0.0170396 0)
(0.998929 -0.0169049 0)
(0.998798 -0.0167593 0)
(0.998674 -0.0166047 0)
(0.998558 -0.0164427 0)
(0.998454 -0.0162747 0)
(0.998363 -0.0161019 0)
(0.998284 -0.0159252 0)
(0.998213 -0.0157455 0)
(0.998144 -0.0155637 0)
(0.998071 -0.015381 0)
(0.997992 -0.0151985 0)
(0.997904 -0.0150175 0)
(0.997811 -0.0148387 0)
(0.997716 -0.0146629 0)
(0.997622 -0.0144904 0)
(0.997532 -0.0143215 0)
(0.997448 -0.0141565 0)
(0.99737 -0.0139954 0)
(0.997298 -0.0138384 0)
(0.997233 -0.0136857 0)
(0.997173 -0.0135374 0)
(0.997117 -0.0133937 0)
(0.997066 -0.0132546 0)
(0.997019 -0.0131203 0)
(0.996975 -0.0129908 0)
(1.00156 -0.00034676 0)
(1.00158 -0.00121649 0)
(1.00162 -0.00193882 0)
(1.00167 -0.00272485 0)
(1.00174 -0.0034911 0)
(1.00182 -0.00426014 0)
(1.00191 -0.00503818 0)
(1.002 -0.00582522 0)
(1.0021 -0.00662243 0)
(1.00221 -0.00742976 0)
(1.00231 -0.00824608 0)
(1.00241 -0.00906952 0)
(1.00251 -0.00989751 0)
(1.0026 -0.0107269 0)
(1.00268 -0.0115539 0)
(1.00275 -0.0123746 0)
(1.0028 -0.0131847 0)
(1.00284 -0.0139795 0)
(1.00286 -0.0147546 0)
(1.00286 -0.0155056 0)
(1.00284 -0.0162281 0)
(1.00279 -0.0169181 0)
(1.00273 -0.017572 0)
(1.00265 -0.0181866 0)
(1.00254 -0.018759 0)
(1.00242 -0.0192871 0)
(1.00228 -0.0197691 0)
(1.00211 -0.020204 0)
(1.00194 -0.020591 0)
(1.00175 -0.0209302 0)
(1.00154 -0.0212219 0)
(1.00133 -0.021467 0)
(1.0011 -0.0216668 0)
(1.00087 -0.0218229 0)
(1.00064 -0.0219373 0)
(1.00039 -0.022012 0)
(1.00015 -0.0220496 0)
(0.999909 -0.0220526 0)
(0.999666 -0.0220236 0)
(0.999425 -0.0219656 0)
(0.999188 -0.0218812 0)
(0.998954 -0.0217732 0)
(0.998725 -0.021644 0)
(0.998501 -0.021496 0)
(0.998283 -0.0213314 0)
(0.998071 -0.021152 0)
(0.997864 -0.0209597 0)
(0.997659 -0.0207564 0)
(0.997454 -0.0205437 0)
(0.997249 -0.0203236 0)
(0.997044 -0.0200979 0)
(0.996843 -0.0198683 0)
(0.996652 -0.0196363 0)
(0.996478 -0.019403 0)
(0.996324 -0.0191694 0)
(0.99619 -0.0189362 0)
(0.996074 -0.0187042 0)
(0.99597 -0.0184743 0)
(0.995875 -0.0182472 0)
(0.995785 -0.0180237 0)
(0.995699 -0.0178047 0)
(0.995616 -0.0175905 0)
(0.995535 -0.0173818 0)
(0.995456 -0.0171789 0)
(0.99538 -0.0169821 0)
(0.995307 -0.0167915 0)
(0.995237 -0.0166074 0)
(0.99517 -0.0164299 0)
(0.995107 -0.016259 0)
(1.00219 -0.000415042 0)
(1.00222 -0.0014502 0)
(1.00228 -0.00231543 0)
(1.00235 -0.00325463 0)
(1.00245 -0.00416677 0)
(1.00256 -0.00508346 0)
(1.00268 -0.00600972 0)
(1.00281 -0.00694587 0)
(1.00296 -0.00789372 0)
(1.0031 -0.00885334 0)
(1.00325 -0.00982361 0)
(1.00339 -0.0108026 0)
(1.00353 -0.0117874 0)
(1.00366 -0.0127747 0)
(1.00377 -0.0137603 0)
(1.00387 -0.0147396 0)
(1.00395 -0.0157077 0)
(1.004 -0.0166593 0)
(1.00403 -0.0175893 0)
(1.00404 -0.0184923 0)
(1.00401 -0.0193633 0)
(1.00396 -0.0201973 0)
(1.00388 -0.02099 0)
(1.00376 -0.0217372 0)
(1.00362 -0.0224355 0)
(1.00345 -0.0230819 0)
(1.00325 -0.0236743 0)
(1.00303 -0.0242108 0)
(1.00278 -0.0246905 0)
(1.00251 -0.025113 0)
(1.00222 -0.0254786 0)
(1.00191 -0.0257879 0)
(1.00159 -0.0260422 0)
(1.00126 -0.0262432 0)
(1.00092 -0.026393 0)
(1.00058 -0.026494 0)
(1.00023 -0.0265488 0)
(0.999879 -0.0265602 0)
(0.999528 -0.026531 0)
(0.99918 -0.0264643 0)
(0.998835 -0.0263629 0)
(0.998496 -0.02623 0)
(0.998163 -0.0260686 0)
(0.997837 -0.025882 0)
(0.997521 -0.0256733 0)
(0.997213 -0.0254458 0)
(0.996918 -0.0252025 0)
(0.996637 -0.0249466 0)
(0.996373 -0.0246807 0)
(0.996128 -0.024407 0)
(0.995903 -0.0241276 0)
(0.995691 -0.023844 0)
(0.995488 -0.0235577 0)
(0.995286 -0.0232701 0)
(0.995081 -0.0229826 0)
(0.994873 -0.0226965 0)
(0.994665 -0.022413 0)
(0.99446 -0.0221329 0)
(0.994263 -0.021857 0)
(0.994077 -0.0215859 0)
(0.993903 -0.0213202 0)
(0.993741 -0.0210602 0)
(0.99359 -0.0208064 0)
(0.993451 -0.0205593 0)
(0.993321 -0.0203191 0)
(0.9932 -0.0200861 0)
(0.993088 -0.0198606 0)
(0.992983 -0.0196427 0)
(0.992884 -0.0194326 0)
(1.00289 -0.00047821 0)
(1.00293 -0.0016642 0)
(1.003 -0.00266055 0)
(1.0031 -0.00374009 0)
(1.00322 -0.00478593 0)
(1.00337 -0.00583857 0)
(1.00353 -0.00690135 0)
(1.00371 -0.00797528 0)
(1.00389 -0.00906282 0)
(1.00409 -0.0101642 0)
(1.00428 -0.0112785 0)
(1.00447 -0.0124038 0)
(1.00466 -0.0135373 0)
(1.00483 -0.0146752 0)
(1.00498 -0.0158132 0)
(1.00512 -0.0169463 0)
(1.00523 -0.0180691 0)
(1.00531 -0.0191758 0)
(1.00536 -0.0202606 0)
(1.00537 -0.0213173 0)
(1.00535 -0.0223401 0)
(1.00529 -0.0233233 0)
(1.00518 -0.0242615 0)
(1.00504 -0.02515 0)
(1.00486 -0.0259842 0)
(1.00464 -0.0267605 0)
(1.00438 -0.0274758 0)
(1.00409 -0.0281277 0)
(1.00376 -0.0287147 0)
(1.00341 -0.0292357 0)
(1.00302 -0.0296906 0)
(1.00262 -0.0300799 0)
(1.00219 -0.0304046 0)
(1.00175 -0.0306664 0)
(1.00129 -0.0308675 0)
(1.00082 -0.0310104 0)
(1.00035 -0.0310982 0)
(0.999876 -0.0311342 0)
(0.999399 -0.0311219 0)
(0.998924 -0.0310652 0)
(0.998453 -0.0309679 0)
(0.997989 -0.0308338 0)
(0.997532 -0.0306668 0)
(0.997086 -0.0304703 0)
(0.99665 -0.0302476 0)
(0.996226 -0.0300016 0)
(0.995814 -0.0297349 0)
(0.995412 -0.0294502 0)
(0.995019 -0.0291497 0)
(0.994634 -0.0288358 0)
(0.994255 -0.0285112 0)
(0.993888 -0.0281782 0)
(0.993538 -0.0278395 0)
(0.993212 -0.0274973 0)
(0.992914 -0.0271536 0)
(0.992643 -0.02681 0)
(0.992396 -0.0264681 0)
(0.992167 -0.0261291 0)
(0.991953 -0.0257943 0)
(0.99175 -0.0254648 0)
(0.991555 -0.0251414 0)
(0.991369 -0.0248252 0)
(0.99119 -0.0245166 0)
(0.991018 -0.0242162 0)
(0.990855 -0.0239244 0)
(0.9907 -0.0236416 0)
(0.990553 -0.0233679 0)
(0.990413 -0.0231038 0)
(0.990282 -0.0228492 0)
(1.00365 -0.000536047 0)
(1.00369 -0.00185706 0)
(1.00379 -0.00297092 0)
(1.00391 -0.004177 0)
(1.00406 -0.00534362 0)
(1.00425 -0.00651984 0)
(1.00445 -0.00770708 0)
(1.00467 -0.00890735 0)
(1.00491 -0.0101238 0)
(1.00515 -0.0113569 0)
(1.0054 -0.012606 0)
(1.00565 -0.0138694 0)
(1.00588 -0.0151443 0)
(1.00611 -0.016427 0)
(1.00631 -0.0177131 0)
(1.00649 -0.0189973 0)
(1.00664 -0.0202738 0)
(1.00675 -0.0215364 0)
(1.00683 -0.0227786 0)
(1.00686 -0.0239938 0)
(1.00684 -0.0251752 0)
(1.00677 -0.0263164 0)
(1.00666 -0.0274111 0)
(1.00649 -0.0284534 0)
(1.00627 -0.029438 0)
(1.006 -0.0303602 0)
(1.00569 -0.0312159 0)
(1.00532 -0.032002 0)
(1.00491 -0.0327158 0)
(1.00447 -0.0333558 0)
(1.00398 -0.0339211 0)
(1.00347 -0.0344117 0)
(1.00292 -0.0348282 0)
(1.00236 -0.035172 0)
(1.00177 -0.035445 0)
(1.00117 -0.0356499 0)
(1.00057 -0.0357894 0)
(0.999951 -0.0358669 0)
(0.999334 -0.0358858 0)
(0.998719 -0.0358498 0)
(0.998109 -0.0357628 0)
(0.997506 -0.0356285 0)
(0.996914 -0.0354509 0)
(0.996333 -0.0352341 0)
(0.995767 -0.0349825 0)
(0.995217 -0.0347005 0)
(0.994684 -0.0343926 0)
(0.994172 -0.0340632 0)
(0.993684 -0.0337166 0)
(0.993221 -0.0333563 0)
(0.992784 -0.0329858 0)
(0.992371 -0.0326076 0)
(0.991975 -0.0322236 0)
(0.99159 -0.0318359 0)
(0.991211 -0.0314461 0)
(0.990837 -0.0310559 0)
(0.990471 -0.0306671 0)
(0.990117 -0.0302811 0)
(0.989779 -0.0298991 0)
(0.989459 -0.0295224 0)
(0.989159 -0.029152 0)
(0.988878 -0.0287887 0)
(0.988615 -0.0284333 0)
(0.988369 -0.0280864 0)
(0.988139 -0.0277488 0)
(0.987924 -0.0274208 0)
(0.987722 -0.0271029 0)
(0.987533 -0.0267954 0)
(0.987355 -0.0264986 0)
(1.00445 -0.000588181 0)
(1.0045 -0.00202793 0)
(1.00461 -0.00324538 0)
(1.00476 -0.00456392 0)
(1.00495 -0.0058382 0)
(1.00517 -0.00712546 0)
(1.00542 -0.0084252 0)
(1.00569 -0.00974061 0)
(1.00599 -0.0110755 0)
(1.00629 -0.0124307 0)
(1.00659 -0.013806 0)
(1.0069 -0.0152 0)
(1.00719 -0.0166103 0)
(1.00748 -0.0180331 0)
(1.00774 -0.019464 0)
(1.00797 -0.0208978 0)
(1.00816 -0.0223284 0)
(1.00832 -0.0237492 0)
(1.00842 -0.0251534 0)
(1.00848 -0.0265336 0)
(1.00848 -0.0278824 0)
(1.00842 -0.0291925 0)
(1.00829 -0.0304567 0)
(1.00811 -0.031668 0)
(1.00786 -0.0328201 0)
(1.00755 -0.0339071 0)
(1.00717 -0.0349238 0)
(1.00674 -0.0358658 0)
(1.00625 -0.0367296 0)
(1.00571 -0.0375125 0)
(1.00513 -0.0382127 0)
(1.0045 -0.0388294 0)
(1.00383 -0.0393624 0)
(1.00313 -0.0398126 0)
(1.00241 -0.0401815 0)
(1.00167 -0.0404713 0)
(1.00091 -0.040685 0)
(1.00014 -0.0408259 0)
(0.999372 -0.040898 0)
(0.9986 -0.0409058 0)
(0.99783 -0.040854 0)
(0.997068 -0.0407475 0)
(0.996316 -0.0405914 0)
(0.995577 -0.0403906 0)
(0.994854 -0.0401498 0)
(0.994149 -0.0398731 0)
(0.993463 -0.0395643 0)
(0.992798 -0.0392268 0)
(0.992151 -0.0388639 0)
(0.991521 -0.0384787 0)
(0.99091 -0.0380745 0)
(0.990317 -0.037655 0)
(0.98975 -0.0372236 0)
(0.989214 -0.0367841 0)
(0.988713 -0.0363396 0)
(0.988248 -0.0358927 0)
(0.987815 -0.0354458 0)
(0.987411 -0.0350007 0)
(0.987029 -0.0345594 0)
(0.986666 -0.0341234 0)
(0.98632 -0.0336941 0)
(0.985991 -0.0332727 0)
(0.985677 -0.0328602 0)
(0.985378 -0.0324575 0)
(0.985094 -0.0320654 0)
(0.984826 -0.0316844 0)
(0.984572 -0.0313149 0)
(0.984333 -0.0309575 0)
(0.984107 -0.0306125 0)
(1.00527 -0.00063417 0)
(1.00534 -0.00217631 0)
(1.00547 -0.00348371 0)
(1.00564 -0.00490061 0)
(1.00586 -0.00626939 0)
(1.00613 -0.00765515 0)
(1.00643 -0.00905545 0)
(1.00675 -0.0104748 0)
(1.0071 -0.0119177 0)
(1.00746 -0.0133855 0)
(1.00783 -0.0148785 0)
(1.0082 -0.0163957 0)
(1.00856 -0.017935 0)
(1.00891 -0.0194931 0)
(1.00923 -0.0210656 0)
(1.00952 -0.0226473 0)
(1.00978 -0.0242322 0)
(1.00998 -0.0258134 0)
(1.01013 -0.0273836 0)
(1.01022 -0.0289352 0)
(1.01024 -0.0304599 0)
(1.0102 -0.0319497 0)
(1.01008 -0.0333963 0)
(1.00989 -0.0347919 0)
(1.00962 -0.0361288 0)
(1.00927 -0.0373999 0)
(1.00885 -0.0385987 0)
(1.00835 -0.0397195 0)
(1.00779 -0.0407575 0)
(1.00716 -0.0417086 0)
(1.00647 -0.04257 0)
(1.00573 -0.0433395 0)
(1.00494 -0.0440163 0)
(1.00411 -0.0446004 0)
(1.00324 -0.0450926 0)
(1.00235 -0.0454947 0)
(1.00143 -0.0458094 0)
(1.0005 -0.0460399 0)
(0.999556 -0.0461898 0)
(0.998612 -0.0462634 0)
(0.997671 -0.0462649 0)
(0.996736 -0.046199 0)
(0.995812 -0.0460702 0)
(0.994905 -0.0458835 0)
(0.994016 -0.0456439 0)
(0.993149 -0.0453571 0)
(0.992306 -0.0450287 0)
(0.991491 -0.0446646 0)
(0.990706 -0.0442705 0)
(0.989954 -0.0438519 0)
(0.989238 -0.0434135 0)
(0.988556 -0.0429594 0)
(0.987904 -0.0424928 0)
(0.987275 -0.0420164 0)
(0.986665 -0.0415328 0)
(0.986072 -0.0410445 0)
(0.985496 -0.0405542 0)
(0.984943 -0.0400642 0)
(0.984415 -0.0395766 0)
(0.983916 -0.0390934 0)
(0.983445 -0.0386161 0)
(0.983001 -0.0381462 0)
(0.982585 -0.0376849 0)
(0.982194 -0.0372334 0)
(0.981826 -0.0367926 0)
(0.981481 -0.0363633 0)
(0.981156 -0.0359461 0)
(0.980851 -0.0355417 0)
(0.980565 -0.0351506 0)
(1.00611 -0.000673691 0)
(1.00618 -0.0023021 0)
(1.00633 -0.00368632 0)
(1.00654 -0.00518759 0)
(1.0068 -0.00663775 0)
(1.0071 -0.00810939 0)
(1.00745 -0.0095982 0)
(1.00783 -0.0111101 0)
(1.00824 -0.0126502 0)
(1.00867 -0.0142205 0)
(1.00911 -0.0158219 0)
(1.00955 -0.0174541 0)
(1.00998 -0.0191152 0)
(1.0104 -0.0208025 0)
(1.01079 -0.0225119 0)
(1.01115 -0.0242383 0)
(1.01147 -0.0259758 0)
(1.01173 -0.0277175 0)
(1.01193 -0.0294559 0)
(1.01207 -0.0311828 0)
(1.01214 -0.0328897 0)
(1.01212 -0.0345677 0)
(1.01202 -0.0362076 0)
(1.01183 -0.0378005 0)
(1.01155 -0.0393376 0)
(1.01118 -0.0408105 0)
(1.01072 -0.0422112 0)
(1.01017 -0.0435326 0)
(1.00954 -0.0447682 0)
(1.00883 -0.0459127 0)
(1.00805 -0.0469617 0)
(1.00719 -0.0479117 0)
(1.00628 -0.0487606 0)
(1.00531 -0.0495071 0)
(1.0043 -0.0501513 0)
(1.00324 -0.0506939 0)
(1.00216 -0.051137 0)
(1.00106 -0.0514831 0)
(0.999935 -0.0517359 0)
(0.998806 -0.0518995 0)
(0.997676 -0.0519789 0)
(0.996551 -0.0519796 0)
(0.995435 -0.0519077 0)
(0.994334 -0.0517693 0)
(0.993252 -0.0515705 0)
(0.992192 -0.0513173 0)
(0.991159 -0.0510148 0)
(0.990154 -0.050668 0)
(0.989177 -0.0502813 0)
(0.98823 -0.0498589 0)
(0.987311 -0.0494051 0)
(0.986422 -0.0489248 0)
(0.985566 -0.0484227 0)
(0.98475 -0.0479039 0)
(0.98398 -0.047373 0)
(0.983255 -0.046834 0)
(0.982576 -0.04629 0)
(0.981936 -0.0457441 0)
(0.981331 -0.0451989 0)
(0.980756 -0.0446567 0)
(0.98021 -0.0441198 0)
(0.97969 -0.0435901 0)
(0.979196 -0.0430692 0)
(0.978727 -0.0425586 0)
(0.978283 -0.0420594 0)
(0.977863 -0.0415728 0)
(0.977467 -0.0410995 0)
(0.977093 -0.0406404 0)
(0.976741 -0.0401959 0)
(1.00695 -0.000706764 0)
(1.00703 -0.00240596 0)
(1.0072 -0.00385448 0)
(1.00743 -0.00542653 0)
(1.00773 -0.00694519 0)
(1.00808 -0.00849019 0)
(1.00848 -0.0100554 0)
(1.00892 -0.0116481 0)
(1.00939 -0.0132741 0)
(1.00989 -0.0149361 0)
(1.0104 -0.0166357 0)
(1.01091 -0.0183733 0)
(1.01143 -0.0201475 0)
(1.01192 -0.0219561 0)
(1.01239 -0.0237955 0)
(1.01283 -0.0256609 0)
(1.01322 -0.0275468 0)
(1.01356 -0.0294462 0)
(1.01383 -0.0313517 0)
(1.01403 -0.0332549 0)
(1.01415 -0.0351468 0)
(1.01417 -0.0370179 0)
(1.0141 -0.0388584 0)
(1.01393 -0.0406583 0)
(1.01366 -0.0424078 0)
(1.01328 -0.0440969 0)
(1.0128 -0.0457165 0)
(1.01222 -0.0472577 0)
(1.01153 -0.0487125 0)
(1.01075 -0.0500739 0)
(1.00987 -0.0513356 0)
(1.00892 -0.0524926 0)
(1.00788 -0.0535412 0)
(1.00678 -0.0544788 0)
(1.00561 -0.0553038 0)
(1.0044 -0.0560162 0)
(1.00314 -0.056617 0)
(1.00186 -0.0571081 0)
(1.00055 -0.0574928 0)
(0.99922 -0.0577749 0)
(0.997887 -0.0579588 0)
(0.996556 -0.0580496 0)
(0.995233 -0.0580524 0)
(0.993925 -0.0579728 0)
(0.992637 -0.0578166 0)
(0.991375 -0.0575899 0)
(0.990143 -0.0572995 0)
(0.988945 -0.0569527 0)
(0.987785 -0.0565567 0)
(0.986667 -0.0561191 0)
(0.985593 -0.0556464 0)
(0.984567 -0.0551447 0)
(0.983584 -0.0546188 0)
(0.98264 -0.0540728 0)
(0.981729 -0.0535105 0)
(0.980849 -0.0529357 0)
(0.979998 -0.0523523 0)
(0.979182 -0.0517639 0)
(0.978403 -0.0511738 0)
(0.977664 -0.0505848 0)
(0.976965 -0.0499996 0)
(0.976306 -0.0494202 0)
(0.975685 -0.0488487 0)
(0.975099 -0.0482867 0)
(0.974548 -0.0477359 0)
(0.974029 -0.0471974 0)
(0.973541 -0.0466725 0)
(0.973081 -0.0461621 0)
(0.972649 -0.0456671 0)
(1.00777 -0.00073387 0)
(1.00787 -0.0024897 0)
(1.00806 -0.00399084 0)
(1.00832 -0.00562091 0)
(1.00866 -0.00719596 0)
(1.00906 -0.00880229 0)
(1.00951 -0.010432 0)
(1.01001 -0.0120938 0)
(1.01055 -0.0137942 0)
(1.01111 -0.0155366 0)
(1.0117 -0.0173235 0)
(1.01229 -0.0191557 0)
(1.01289 -0.0210327 0)
(1.01347 -0.022953 0)
(1.01403 -0.0249134 0)
(1.01455 -0.0269098 0)
(1.01503 -0.0289369 0)
(1.01545 -0.0309882 0)
(1.01581 -0.0330563 0)
(1.01608 -0.0351329 0)
(1.01626 -0.0372087 0)
(1.01635 -0.0392739 0)
(1.01632 -0.0413182 0)
(1.01619 -0.0433307 0)
(1.01594 -0.0453005 0)
(1.01558 -0.0472166 0)
(1.01509 -0.0490682 0)
(1.01448 -0.050845 0)
(1.01375 -0.0525373 0)
(1.01291 -0.0541361 0)
(1.01196 -0.0556334 0)
(1.0109 -0.0570223 0)
(1.00976 -0.0582972 0)
(1.00852 -0.0594536 0)
(1.00722 -0.0604885 0)
(1.00584 -0.0614003 0)
(1.00441 -0.0621887 0)
(1.00294 -0.0628544 0)
(1.00143 -0.0633996 0)
(0.999895 -0.0638274 0)
(0.99835 -0.064142 0)
(0.996799 -0.0643485 0)
(0.995252 -0.0644529 0)
(0.993717 -0.0644621 0)
(0.992201 -0.0643835 0)
(0.990709 -0.0642245 0)
(0.989247 -0.0639922 0)
(0.987819 -0.0636933 0)
(0.986429 -0.0633337 0)
(0.985079 -0.0629192 0)
(0.983768 -0.0624553 0)
(0.982498 -0.061948 0)
(0.981272 -0.0614038 0)
(0.980096 -0.0608294 0)
(0.978977 -0.0602311 0)
(0.977917 -0.0596146 0)
(0.976917 -0.0589847 0)
(0.975972 -0.0583454 0)
(0.975077 -0.0577007 0)
(0.974228 -0.0570541 0)
(0.97342 -0.0564088 0)
(0.972652 -0.0557678 0)
(0.971923 -0.0551337 0)
(0.971232 -0.0545089 0)
(0.970578 -0.0538952 0)
(0.969959 -0.0532943 0)
(0.969375 -0.0527078 0)
(0.968824 -0.0521368 0)
(0.968306 -0.0515824 0)
(1.00858 -0.000755832 0)
(1.00869 -0.00255597 0)
(1.0089 -0.00409928 0)
(1.00919 -0.005776 0)
(1.00957 -0.00739652 0)
(1.01001 -0.00905315 0)
(1.01052 -0.0107364 0)
(1.01108 -0.0124561 0)
(1.01169 -0.0142196 0)
(1.01233 -0.016031 0)
(1.01299 -0.0178937 0)
(1.01367 -0.0198092 0)
(1.01435 -0.0217779 0)
(1.01503 -0.0237987 0)
(1.01568 -0.0258695 0)
(1.0163 -0.0279866 0)
(1.01687 -0.0301453 0)
(1.01739 -0.0323398 0)
(1.01783 -0.0345628 0)
(1.01819 -0.0368064 0)
(1.01846 -0.0390614 0)
(1.01862 -0.0413177 0)
(1.01866 -0.0435647 0)
(1.01858 -0.045791 0)
(1.01838 -0.0479847 0)
(1.01804 -0.050134 0)
(1.01756 -0.0522266 0)
(1.01695 -0.0542509 0)
(1.0162 -0.0561952 0)
(1.01531 -0.0580488 0)
(1.0143 -0.0598016 0)
(1.01317 -0.0614448 0)
(1.01192 -0.0629705 0)
(1.01057 -0.0643723 0)
(1.00912 -0.0656452 0)
(1.00759 -0.0667855 0)
(1.00599 -0.0677913 0)
(1.00432 -0.0686619 0)
(1.00261 -0.0693982 0)
(1.00087 -0.0700026 0)
(0.999096 -0.0704785 0)
(0.997313 -0.0708306 0)
(0.995527 -0.071064 0)
(0.993749 -0.0711846 0)
(0.991987 -0.0711987 0)
(0.99025 -0.0711129 0)
(0.988545 -0.0709346 0)
(0.986879 -0.0706719 0)
(0.985256 -0.0703336 0)
(0.983683 -0.0699291 0)
(0.982165 -0.0694673 0)
(0.980705 -0.0689565 0)
(0.979305 -0.0684038 0)
(0.977961 -0.0678152 0)
(0.976667 -0.0671961 0)
(0.975418 -0.0665519 0)
(0.974215 -0.0658881 0)
(0.973059 -0.0652101 0)
(0.971954 -0.0645227 0)
(0.970903 -0.0638303 0)
(0.969907 -0.0631367 0)
(0.968966 -0.0624451 0)
(0.968078 -0.0617586 0)
(0.967239 -0.0610797 0)
(0.966449 -0.0604108 0)
(0.965703 -0.059754 0)
(0.965001 -0.059111 0)
(0.96434 -0.0584835 0)
(0.963718 -0.0578729 0)
(1.00937 -0.000773547 0)
(1.00949 -0.00260772 0)
(1.00972 -0.00418425 0)
(1.01004 -0.0058979 0)
(1.01046 -0.00755443 0)
(1.01095 -0.00925159 0)
(1.01151 -0.0109782 0)
(1.01213 -0.0127456 0)
(1.01281 -0.0145615 0)
(1.01352 -0.0164311 0)
(1.01427 -0.0183583 0)
(1.01504 -0.0203456 0)
(1.01581 -0.0223941 0)
(1.01658 -0.0245037 0)
(1.01733 -0.0266729 0)
(1.01806 -0.028899 0)
(1.01873 -0.031178 0)
(1.01935 -0.0335046 0)
(1.0199 -0.0358723 0)
(1.02036 -0.0382735 0)
(1.02072 -0.0406995 0)
(1.02097 -0.0431403 0)
(1.02109 -0.045585 0)
(1.02109 -0.0480222 0)
(1.02095 -0.0504394 0)
(1.02065 -0.0528238 0)
(1.02021 -0.0551622 0)
(1.01961 -0.0574414 0)
(1.01886 -0.0596484 0)
(1.01796 -0.0617706 0)
(1.0169 -0.0637957 0)
(1.01571 -0.0657129 0)
(1.01437 -0.0675119 0)
(1.01291 -0.069184 0)
(1.01134 -0.0707219 0)
(1.00966 -0.0721198 0)
(1.00789 -0.0733737 0)
(1.00604 -0.074481 0)
(1.00413 -0.0754409 0)
(1.00216 -0.0762542 0)
(1.00016 -0.0769231 0)
(0.998137 -0.0774511 0)
(0.996101 -0.0778431 0)
(0.994064 -0.0781053 0)
(0.992039 -0.0782451 0)
(0.990035 -0.0782708 0)
(0.98806 -0.0781911 0)
(0.986122 -0.0780144 0)
(0.984227 -0.0777487 0)
(0.98238 -0.0774015 0)
(0.980583 -0.0769798 0)
(0.978838 -0.0764911 0)
(0.977148 -0.0759435 0)
(0.975519 -0.0753455 0)
(0.973959 -0.074706 0)
(0.972474 -0.0740327 0)
(0.971067 -0.0733326 0)
(0.969735 -0.0726114 0)
(0.968471 -0.0718744 0)
(0.967271 -0.0711269 0)
(0.966129 -0.0703735 0)
(0.965044 -0.0696187 0)
(0.964014 -0.0688665 0)
(0.963037 -0.0681204 0)
(0.962112 -0.0673834 0)
(0.961237 -0.0666582 0)
(0.960412 -0.065947 0)
(0.959633 -0.0652519 0)
(0.958899 -0.0645744 0)
(1.01013 -0.000787799 0)
(1.01026 -0.00264763 0)
(1.01051 -0.00424999 0)
(1.01086 -0.00599246 0)
(1.01132 -0.00767697 0)
(1.01186 -0.00940622 0)
(1.01247 -0.0111675 0)
(1.01316 -0.0129732 0)
(1.0139 -0.0148318 0)
(1.01469 -0.0167492 0)
(1.01552 -0.0187302 0)
(1.01638 -0.0207779 0)
(1.01725 -0.0228945 0)
(1.01812 -0.0250807 0)
(1.01898 -0.0273359 0)
(1.01981 -0.0296583 0)
(1.02059 -0.0320448 0)
(1.02132 -0.034491 0)
(1.02198 -0.0369911 0)
(1.02255 -0.0395384 0)
(1.02302 -0.0421245 0)
(1.02338 -0.04474 0)
(1.02361 -0.0473744 0)
(1.02369 -0.0500159 0)
(1.02363 -0.0526522 0)
(1.0234 -0.0552697 0)
(1.02302 -0.0578545 0)
(1.02246 -0.0603925 0)
(1.02173 -0.0628689 0)
(1.02082 -0.0652697 0)
(1.01975 -0.0675806 0)
(1.01851 -0.0697885 0)
(1.01712 -0.0718809 0)
(1.01557 -0.0738465 0)
(1.01388 -0.0756755 0)
(1.01207 -0.0773596 0)
(1.01014 -0.0788921 0)
(1.00811 -0.0802681 0)
(1.006 -0.0814846 0)
(1.00382 -0.0825403 0)
(1.00158 -0.083436 0)
(0.999307 -0.0841739 0)
(0.997009 -0.0847579 0)
(0.994701 -0.0851932 0)
(0.992396 -0.0854857 0)
(0.990108 -0.0856424 0)
(0.987846 -0.0856706 0)
(0.985622 -0.0855789 0)
(0.983443 -0.085377 0)
(0.98132 -0.0850756 0)
(0.979258 -0.084686 0)
(0.977266 -0.0842193 0)
(0.975348 -0.0836853 0)
(0.973505 -0.0830925 0)
(0.971731 -0.0824484 0)
(0.970021 -0.0817602 0)
(0.968371 -0.0810353 0)
(0.966784 -0.0802816 0)
(0.965264 -0.0795061 0)
(0.963816 -0.0787153 0)
(0.962441 -0.0779145 0)
(0.961139 -0.0771088 0)
(0.959909 -0.0763024 0)
(0.958747 -0.0754994 0)
(0.957649 -0.0747032 0)
(0.956615 -0.073917 0)
(0.955639 -0.0731435 0)
(0.95472 -0.0723853 0)
(0.953855 -0.0716446 0)
(1.01086 -0.000799203 0)
(1.01101 -0.00267786 0)
(1.01128 -0.00430006 0)
(1.01166 -0.00606461 0)
(1.01215 -0.00777033 0)
(1.01273 -0.0095244 0)
(1.01341 -0.0113126 0)
(1.01415 -0.0131484 0)
(1.01496 -0.0150408 0)
(1.01583 -0.0169965 0)
(1.01675 -0.019021 0)
(1.01769 -0.0211184 0)
(1.01866 -0.0232917 0)
(1.01963 -0.0255424 0)
(1.02059 -0.0278709 0)
(1.02153 -0.0302766 0)
(1.02244 -0.0327572 0)
(1.02329 -0.0353094 0)
(1.02407 -0.0379285 0)
(1.02476 -0.0406084 0)
(1.02535 -0.0433419 0)
(1.02583 -0.0461201 0)
(1.02617 -0.0489331 0)
(1.02636 -0.0517696 0)
(1.0264 -0.0546171 0)
(1.02627 -0.0574622 0)
(1.02595 -0.0602905 0)
(1.02546 -0.0630869 0)
(1.02477 -0.0658359 0)
(1.0239 -0.0685216 0)
(1.02283 -0.0711283 0)
(1.02158 -0.0736406 0)
(1.02014 -0.0760438 0)
(1.01852 -0.0783239 0)
(1.01675 -0.0804683 0)
(1.01481 -0.0824659 0)
(1.01274 -0.0843072 0)
(1.01055 -0.0859845 0)
(1.00824 -0.0874922 0)
(1.00585 -0.0888267 0)
(1.00338 -0.0899865 0)
(1.00085 -0.0909718 0)
(0.998286 -0.091785 0)
(0.995695 -0.09243 0)
(0.993098 -0.0929128 0)
(0.990507 -0.0932407 0)
(0.987936 -0.0934227 0)
(0.985397 -0.0934685 0)
(0.982901 -0.0933878 0)
(0.980456 -0.09319 0)
(0.978069 -0.0928837 0)
(0.975744 -0.092478 0)
(0.973483 -0.0919823 0)
(0.971294 -0.0914075 0)
(0.969186 -0.0907649 0)
(0.96717 -0.0900656 0)
(0.965253 -0.0893192 0)
(0.963433 -0.0885339 0)
(0.961706 -0.0877169 0)
(0.960064 -0.0868755 0)
(0.958502 -0.0860165 0)
(0.957016 -0.0851464 0)
(0.955605 -0.0842711 0)
(0.954266 -0.0833959 0)
(0.952998 -0.0825252 0)
(0.951799 -0.0816633 0)
(0.950667 -0.0808134 0)
(0.949599 -0.0799788 0)
(0.948592 -0.0791621 0)
(1.01156 -0.000808218 0)
(1.01172 -0.00270007 0)
(1.01201 -0.00433712 0)
(1.01242 -0.00611808 0)
(1.01295 -0.00783922 0)
(1.01358 -0.00961181 0)
(1.0143 -0.0114202 0)
(1.01511 -0.0132786 0)
(1.01599 -0.0151968 0)
(1.01693 -0.0171821 0)
(1.01793 -0.0192407 0)
(1.01896 -0.0213776 0)
(1.02003 -0.0235964 0)
(1.0211 -0.0258999 0)
(1.02217 -0.0282895 0)
(1.02323 -0.0307653 0)
(1.02426 -0.0333265 0)
(1.02523 -0.0359707 0)
(1.02614 -0.0386944 0)
(1.02696 -0.0414926 0)
(1.02769 -0.0443592 0)
(1.02829 -0.0472863 0)
(1.02876 -0.0502649 0)
(1.02908 -0.0532843 0)
(1.02923 -0.0563327 0)
(1.02921 -0.0593967 0)
(1.029 -0.0624621 0)
(1.02859 -0.0655133 0)
(1.02798 -0.068534 0)
(1.02716 -0.0715074 0)
(1.02612 -0.0744162 0)
(1.02488 -0.0772432 0)
(1.02343 -0.0799712 0)
(1.02177 -0.0825841 0)
(1.01993 -0.0850662 0)
(1.0179 -0.0874035 0)
(1.01571 -0.0895833 0)
(1.01336 -0.0915948 0)
(1.01088 -0.0934293 0)
(1.00828 -0.09508 0)
(1.00559 -0.0965425 0)
(1.00281 -0.0978147 0)
(0.999969 -0.0988965 0)
(0.99709 -0.0997903 0)
(0.994188 -0.1005 0)
(0.99128 -0.101031 0)
(0.988384 -0.101391 0)
(0.985514 -0.101586 0)
(0.982684 -0.101628 0)
(0.979908 -0.101527 0)
(0.977195 -0.101296 0)
(0.974559 -0.10095 0)
(0.97201 -0.1005 0)
(0.969553 -0.0999598 0)
(0.967186 -0.0993383 0)
(0.964902 -0.0986452 0)
(0.962698 -0.0978902 0)
(0.960572 -0.0970839 0)
(0.958531 -0.0962364 0)
(0.956582 -0.0953571 0)
(0.954728 -0.094454 0)
(0.952971 -0.0935342 0)
(0.951308 -0.0926039 0)
(0.949736 -0.0916689 0)
(0.948252 -0.0907346 0)
(0.946852 -0.0898056 0)
(0.945531 -0.0888861 0)
(0.944287 -0.0879801 0)
(0.943116 -0.0870908 0)
(1.01223 -0.000815165 0)
(1.0124 -0.00271539 0)
(1.01271 -0.00436299 0)
(1.01315 -0.00615543 0)
(1.01371 -0.00788694 0)
(1.01439 -0.0096725 0)
(1.01516 -0.011495 0)
(1.01603 -0.0133694 0)
(1.01697 -0.0153061 0)
(1.01799 -0.017313 0)
(1.01907 -0.019397 0)
(1.02019 -0.0215637 0)
(1.02135 -0.0238179 0)
(1.02253 -0.0261631 0)
(1.02371 -0.0286016 0)
(1.02489 -0.0311349 0)