/*--------------------------------*- C++ -*----------------------------------*\
  =========                 |
  \\      /  F ield         | OpenFOAM: The Open Source CFD Toolbox
   \\    /   O peration     | Website:  https://openfoam.org
    \\  /    A nd           | Version:  10
     \\/     M anipulation  |
\*---------------------------------------------------------------------------*/
FoamFile
{
    format      ascii;
    class       volVectorField;
    location    "0";
    object      U;
}
// * * * * * * * * * * * * * * * * * * * * * * * * * * * * * * * * * * * * * //

dimensions      [0 1 -1 0 0 0 0];

internalField   nonuniform List<vector> 
18483
(
(1 -0.000221551 0)
(1 -0.000784873 0)
(1 -0.00123132 0)
(1 -0.00169219 0)
(1.00001 -0.00210381 0)
(1.00001 -0.0024726 0)
(1.00001 -0.00278115 0)
(1.00002 -0.003019 0)
(1.00002 -0.00317816 0)
(1.00003 -0.00325524 0)
(1.00003 -0.00325715 0)
(1.00003 -0.00320659 0)
(1.00002 -0.00314198 0)
(0.999981 -0.00312768 0)
(0.99992 -0.00321733 0)
(0.999826 -0.00340709 0)
(0.99964 -0.00361936 0)
(0.999107 -0.00375187 0)
(0.997594 -0.00372064 0)
(0.994485 -0.00349217 0)
(0.990528 -0.00314255 0)
(0.988125 -0.00281908 0)
(0.988753 -0.00256991 0)
(0.991316 -0.00232405 0)
(0.994036 -0.00207221 0)
(0.996086 -0.00183715 0)
(0.997423 -0.00163123 0)
(0.998242 -0.00145825 0)
(0.998728 -0.00131548 0)
(1.00067 -0.000649848 0)
(1.00068 -0.00228508 0)
(1.00072 -0.0035781 0)
(1.00074 -0.00491624 0)
(1.00075 -0.00610297 0)
(1.00072 -0.00716397 0)
(1.00065 -0.00804638 0)
(1.00054 -0.0087244 0)
(1.00037 -0.00918361 0)
(1.00017 -0.00943179 0)
(0.999938 -0.0094952 0)
(0.999716 -0.00942058 0)
(0.999551 -0.00922342 0)
(0.999474 -0.00880895 0)
(0.99947 -0.0080693 0)
(0.99943 -0.00700188 0)
(0.999279 -0.00572106 0)
(0.999167 -0.00440411 0)
(0.999738 -0.00322468 0)
(1.00197 -0.00229114 0)
(1.00572 -0.00164432 0)
(1.00856 -0.00114337 0)
(1.00823 -0.000657858 0)
(1.00555 -0.000294244 0)
(1.00264 -5.35313e-05 0)
(1.00052 0.000130295 0)
(0.999194 0.000294891 0)
(0.99841 0.000460595 0)
(0.997943 0.000629577 0)
(1.00196 -0.00105288 0)
(1.00199 -0.00368089 0)
(1.0021 -0.00576831 0)
(1.00216 -0.00794819 0)
(1.00217 -0.00989142 0)
(1.0021 -0.0116542 0)
(1.0019 -0.0131468 0)
(1.00159 -0.0143276 0)
(1.00115 -0.0151594 0)
(1.00064 -0.0156277 0)
(1.00009 -0.0157222 0)
(0.99958 -0.0154464 0)
(0.999153 -0.0148499 0)
(0.998777 -0.0140352 0)
(0.998344 -0.0132746 0)
(0.997784 -0.0128436 0)
(0.99706 -0.0127546 0)
(0.995964 -0.012827 0)
(0.993819 -0.0127817 0)
(0.989914 -0.0123571 0)
(0.984906 -0.0113841 0)
(0.98143 -0.0100038 0)
(0.981627 -0.00861764 0)
(0.984508 -0.00732531 0)
(0.987661 -0.00609916 0)
(0.989913 -0.00500931 0)
(0.991251 -0.00408107 0)
(0.991967 -0.00330705 0)
(0.992314 -0.00266969 0)
(1.00354 -0.00142514 0)
(1.00363 -0.00496531 0)
(1.00381 -0.00780154 0)
(1.00394 -0.0107967 0)
(1.00399 -0.0135009 0)
(1.00388 -0.016007 0)
(1.00357 -0.0181838 0)
(1.00303 -0.0199673 0)
(1.00227 -0.021282 0)
(1.00132 -0.0220854 0)
(1.00023 -0.0223676 0)
(0.999037 -0.0221656 0)
(0.997787 -0.0216068 0)
(0.996555 -0.0208307 0)
(0.995439 -0.0198191 0)
(0.994566 -0.0183662 0)
(0.993922 -0.0163169 0)
(0.993349 -0.0138915 0)
(0.993012 -0.0115664 0)
(0.993748 -0.00974792 0)
(0.996043 -0.00870387 0)
(0.99812 -0.00830544 0)
(0.997463 -0.00801375 0)
(0.994397 -0.0076104 0)
(0.991187 -0.00718217 0)
(0.989009 -0.00672883 0)
(0.987779 -0.00625277 0)
(0.987127 -0.00577499 0)
(0.986782 -0.00531286 0)
(1.00524 -0.0017522 0)
(1.0054 -0.00609587 0)
(1.00568 -0.00961369 0)
(1.00591 -0.013374 0)
(1.00604 -0.0168279 0)
(1.00594 -0.0201074 0)
(1.00553 -0.023044 0)
(1.00478 -0.0255585 0)
(1.00366 -0.027548 0)
(1.00219 -0.0289557 0)
(1.00043 -0.0297656 0)
(0.998487 -0.0299866 0)
(0.996487 -0.0296282 0)
(0.994587 -0.0286903 0)
(0.992866 -0.0272154 0)
(0.991249 -0.0254606 0)
(0.989597 -0.0239232 0)
(0.987837 -0.0227956 0)
(0.985813 -0.0218684 0)
(0.983024 -0.0209239 0)
(0.97911 -0.0196802 0)
(0.975281 -0.0179932 0)
(0.973847 -0.0161969 0)
(0.975085 -0.0145348 0)
(0.977034 -0.0129251 0)
(0.978408 -0.011411 0)
(0.979154 -0.0100568 0)
(0.979523 -0.00887479 0)
(0.979693 -0.00786111 0)
(1.00702 -0.00202447 0)
(1.00726 -0.00704057 0)
(1.00767 -0.0111516 0)
(1.00805 -0.0156019 0)
(1.0083 -0.019769 0)
(1.00827 -0.0238262 0)
(1.00785 -0.0275758 0)
(1.00695 -0.0309275 0)
(1.00554 -0.0337435 0)
(1.00366 -0.035921 0)
(1.00139 -0.03738 0)
(0.998868 -0.0380704 0)
(0.996214 -0.0379938 0)
(0.993497 -0.037238 0)
(0.990755 -0.0359869 0)
(0.988065 -0.0343399 0)
(0.985626 -0.0321023 0)
(0.983747 -0.0291306 0)
(0.982791 -0.0257972 0)
(0.98323 -0.0227372 0)
(0.985062 -0.0204033 0)
(0.986746 -0.018955 0)
(0.985842 -0.0179502 0)
(0.982112 -0.0169306 0)
(0.977872 -0.0159688 0)
(0.974784 -0.015073 0)
(0.972877 -0.0141872 0)
(0.971723 -0.0133199 0)
(0.971005 -0.0124866 0)
(1.00885 -0.00224169 0)
(1.0092 -0.00779745 0)
(1.00976 -0.0124062 0)
(1.01033 -0.0174579 0)
(1.01078 -0.0222803 0)
(1.0109 -0.0270892 0)
(1.01055 -0.0316639 0)
(1.00962 -0.0359017 0)
(1.00803 -0.0396232 0)
(1.0058 -0.0426797 0)
(1.00299 -0.0449521 0)
(0.999691 -0.0463874 0)
(0.996024 -0.0470095 0)
(0.992141 -0.0468641 0)
(0.988224 -0.0459579 0)
(0.984451 -0.0443578 0)
(0.980922 -0.0424163 0)
(0.977704 -0.0406458 0)
(0.974877 -0.0391656 0)
(0.972091 -0.0376221 0)
(0.968496 -0.0356392 0)
(0.964265 -0.033046 0)
(0.961405 -0.0301782 0)
(0.961131 -0.0275481 0)
(0.961999 -0.0251229 0)
(0.962455 -0.0228465 0)
(0.962387 -0.0208144 0)
(0.962096 -0.019037 0)
(0.961758 -0.0175022 0)
(1.01067 -0.00241053 0)
(1.01115 -0.00838817 0)
(1.0119 -0.0134045 0)
(1.0127 -0.0189673 0)
(1.01341 -0.0243745 0)
(1.01376 -0.0298847 0)
(1.01358 -0.0352638 0)
(1.0127 -0.040406 0)
(1.01101 -0.0451075 0)
(1.00847 -0.0491972 0)
(1.00511 -0.0525254 0)
(1.00104 -0.0549845 0)
(0.996473 -0.0564995 0)
(0.991651 -0.0570248 0)
(0.98675 -0.0566067 0)
(0.981867 -0.0554237 0)
(0.977186 -0.0536193 0)
(0.973113 -0.0510632 0)
(0.970121 -0.0475707 0)
(0.968622 -0.0435018 0)
(0.968787 -0.0396338 0)
(0.969663 -0.0365846 0)
(0.96882 -0.0343154 0)
(0.965004 -0.032271 0)
(0.96004 -0.0303863 0)
(0.956114 -0.0287553 0)
(0.953507 -0.0272438 0)
(0.951748 -0.0258158 0)
(0.950508 -0.024479 0)
(1.01245 -0.00254034 0)
(1.01306 -0.00884295 0)
(1.01401 -0.0141876 0)
(1.01509 -0.0201769 0)
(1.01609 -0.0260933 0)
(1.01675 -0.0322392 0)
(1.01683 -0.0383792 0)
(1.01611 -0.0444168 0)
(1.01445 -0.0501343 0)
(1.01176 -0.0553328 0)
(1.00808 -0.0597999 0)
(1.00353 -0.0633418 0)
(0.998321 -0.0658233 0)
(0.99263 -0.0672078 0)
(0.986623 -0.0675614 0)
(0.980508 -0.0669524 0)
(0.974546 -0.0654719 0)
(0.968945 -0.063518 0)
(0.96377 -0.0616051 0)
(0.958875 -0.059774 0)
(0.953692 -0.0575743 0)
(0.948009 -0.0545615 0)
(0.943361 -0.0508537 0)
(0.941548 -0.047173 0)
(0.941604 -0.0438037 0)
(0.941441 -0.0406013 0)
(0.940671 -0.037701 0)
(0.939722 -0.035161 0)
(0.938812 -0.0329557 0)
(1.01414 -0.00263998 0)
(1.01488 -0.00918993 0)
(1.01605 -0.0147951 0)
(1.01742 -0.0211352 0)
(1.01877 -0.0274852 0)
(1.01977 -0.0341918 0)
(1.02019 -0.0410276 0)
(1.01976 -0.0479118 0)
(1.01827 -0.0546158 0)
(1.01563 -0.0609139 0)
(1.0118 -0.0665524 0)
(1.00685 -0.0713037 0)
(1.00089 -0.0750092 0)
(0.994141 -0.0775802 0)
(0.986869 -0.0789664 0)
(0.979384 -0.0791625 0)
(0.971949 -0.0782484 0)
(0.964891 -0.0763044 0)
(0.958743 -0.0732095 0)
(0.954083 -0.0689571 0)
(0.95131 -0.0641879 0)
(0.950098 -0.0598947 0)
(0.948442 -0.0565702 0)
(0.944173 -0.0536687 0)
(0.938183 -0.0508282 0)
(0.933111 -0.048292 0)
(0.929654 -0.0459786 0)
(0.927196 -0.0437913 0)
(0.925346 -0.0417604 0)
(1.01571 -0.00271658 0)
(1.01658 -0.00945138 0)
(1.01798 -0.0152593 0)
(1.01966 -0.0218841 0)
(1.02136 -0.0285949 0)
(1.02277 -0.0357831 0)
(1.02359 -0.0432358 0)
(1.02353 -0.0508932 0)
(1.02234 -0.0585307 0)
(1.01984 -0.0659224 0)
(1.01594 -0.0728063 0)
(1.01062 -0.0789312 0)
(1.00403 -0.0840621 0)
(0.996427 -0.0879872 0)
(0.988112 -0.0905591 0)
(0.979382 -0.0917372 0)
(0.970534 -0.0915474 0)
(0.961913 -0.090188 0)
(0.953793 -0.088221 0)
(0.946144 -0.0862076 0)
(0.938524 -0.0840394 0)
(0.930501 -0.0810133 0)
(0.923145 -0.076774 0)
(0.918771 -0.0720961 0)
(0.917351 -0.0677535 0)
(0.916303 -0.063605 0)
(0.914572 -0.0597222 0)
(0.912717 -0.0562848 0)
(0.911033 -0.0532625 0)
(1.01715 -0.00277549 0)
(1.01814 -0.00964409 0)
(1.01979 -0.0156057 0)
(1.02177 -0.0224583 0)
(1.02384 -0.0294629 0)
(1.02567 -0.0370555 0)
(1.02694 -0.0450432 0)
(1.02732 -0.0533953 0)
(1.02652 -0.0619075 0)
(1.02429 -0.0703709 0)
(1.0205 -0.0785146 0)
(1.01511 -0.0860438 0)
(1.00824 -0.092645 0)
(1.0001 -0.0980358 0)
(0.990893 -0.102028 0)
(0.980902 -0.104526 0)
(0.970476 -0.105494 0)
(0.960052 -0.10496 0)
(0.950239 -0.102907 0)
(0.941762 -0.0992024 0)
(0.935202 -0.0941419 0)
(0.930708 -0.0888632 0)
(0.927051 -0.0845312 0)
(0.921636 -0.0809196 0)
(0.914019 -0.0772 0)
(0.906979 -0.0736182 0)
(0.902055 -0.0703532 0)
(0.898489 -0.067221 0)
(0.895702 -0.0642886 0)
(1.01848 -0.00282049 0)
(1.01959 -0.00978084 0)
(1.02146 -0.0158544 0)
(1.02374 -0.0228864 0)
(1.02619 -0.0301249 0)
(1.02845 -0.0380507 0)
(1.0302 -0.0464942 0)
(1.03108 -0.0554583 0)
(1.03076 -0.064766 0)
(1.02896 -0.0742286 0)
(1.0255 -0.0835697 0)
(1.02029 -0.092475 0)
(1.01334 -0.100614 0)
(1.00473 -0.107674 0)
(0.994652 -0.113396 0)
(0.983405 -0.117572 0)
(0.971412 -0.120042 0)
(0.95918 -0.120729 0)
(0.947271 -0.119887 0)
(0.935988 -0.118246 0)
(0.925091 -0.116346 0)
(0.914006 -0.113714 0)
(0.903159 -0.109406 0)
(0.894957 -0.103768 0)
(0.8908 -0.0982039 0)
(0.888241 -0.0929774 0)
(0.885071 -0.0879043 0)
(0.881798 -0.0833255 0)
(0.878939 -0.0792682 0)
(1.0197 -0.00285403 0)
(1.02092 -0.00987212 0)
(1.023 -0.0160233 0)
(1.02557 -0.0231931 0)
(1.02838 -0.0306134 0)
(1.03109 -0.0388087 0)
(1.03333 -0.0476331 0)
(1.03475 -0.0571229 0)
(1.03499 -0.0671319 0)
(1.03373 -0.0774999 0)
(1.03073 -0.0879706 0)
(1.0258 -0.0982456 0)
(1.01887 -0.107995 0)
(1.00998 -0.116862 0)
(0.999293 -0.124481 0)
(0.987112 -0.13053 0)
(0.973805 -0.134757 0)
(0.959866 -0.136991 0)
(0.946004 -0.137172 0)
(0.93314 -0.135181 0)
(0.922042 -0.130982 0)
(0.913097 -0.125337 0)
(0.905968 -0.119943 0)
(0.898466 -0.115604 0)
(0.88867 -0.111207 0)
(0.878635 -0.106448 0)
(0.871203 -0.101976 0)
(0.865871 -0.0976427 0)
(0.861622 -0.0934725 0)
(1.02082 -0.00287766 0)
(1.02215 -0.00992707 0)
(1.02441 -0.0161287 0)
(1.02726 -0.0234001 0)
(1.03042 -0.0309577 0)
(1.03355 -0.0393671 0)
(1.03629 -0.0485035 0)
(1.03826 -0.0584364 0)
(1.0391 -0.0690547 0)
(1.03844 -0.0802385 0)
(1.03598 -0.0917689 0)
(1.03147 -0.10337 0)
(1.02481 -0.114703 0)
(1.01599 -0.125368 0)
(1.0051 -0.134946 0)
(0.992283 -0.143051 0)
(0.977817 -0.149349 0)
(0.962196 -0.153562 0)
(0.946242 -0.155604 0)
(0.930727 -0.155897 0)
(0.915666 -0.15528 0)
(0.9005 -0.153878 0)
(0.885169 -0.15051 0)
(0.871653 -0.14446 0)
(0.862784 -0.137405 0)
(0.857522 -0.130776 0)
(0.852292 -0.124191 0)
(0.84682 -0.117966 0)
(0.84211 -0.112413 0)
(1.02186 -0.00289248 0)
(1.02329 -0.00995358 0)
(1.02571 -0.0161852 0)
(1.0288 -0.0235273 0)
(1.0323 -0.0311847 0)
(1.03584 -0.0397609 0)
(1.03906 -0.0491492 0)
(1.04159 -0.0594504 0)
(1.04304 -0.0705925 0)
(1.04303 -0.082499 0)
(1.04121 -0.0949887 0)
(1.03732 -0.107809 0)
(1.03119 -0.120627 0)
(1.02271 -0.13305 0)
(1.01184 -0.144652 0)
(0.998589 -0.154994 0)
(0.983175 -0.163639 0)
(0.966123 -0.170199 0)
(0.948367 -0.174414 0)
(0.930934 -0.176055 0)
(0.914571 -0.174697 0)
(0.899831 -0.170304 0)
(0.887248 -0.164442 0)
(0.875988 -0.159374 0)
(0.863221 -0.15471 0)
(0.848988 -0.14892 0)
(0.837224 -0.142866 0)
(0.828851 -0.13699 0)
(0.822187 -0.131086 0)
(1.02281 -0.00289964 0)
(1.02434 -0.00995798 0)
(1.02691 -0.0162047 0)
(1.03022 -0.0235915 0)
(1.03402 -0.0313176 0)
(1.03795 -0.0400211 0)
(1.04164 -0.0496096 0)
(1.04471 -0.0602122 0)
(1.04679 -0.0717956 0)
(1.04746 -0.0843234 0)
(1.04638 -0.0976526 0)
(1.04323 -0.111567 0)
(1.03776 -0.125771 0)
(1.02977 -0.139901 0)
(1.01911 -0.153528 0)
(1.00574 -0.166156 0)
(0.989798 -0.177267 0)
(0.971754 -0.186406 0)
(0.95252 -0.193258 0)
(0.932934 -0.197703 0)
(0.913109 -0.200196 0)
(0.89269 -0.201435 0)
(0.87169 -0.200705 0)
(0.851329 -0.196029 0)
(0.835032 -0.187995 0)
(0.824552 -0.179642 0)
(0.816109 -0.171407 0)
(0.807228 -0.162964 0)
(0.799392 -0.155208 0)
(1.02368 -0.00290055 0)
(1.0253 -0.00994511 0)
(1.028 -0.016196 0)
(1.03151 -0.0236069 0)
(1.03561 -0.0313766 0)
(1.0399 -0.0401748 0)
(1.04403 -0.0499191 0)
(1.04763 -0.0607637 0)
(1.05033 -0.0727109 0)
(1.0517 -0.0857619 0)
(1.05138 -0.0998169 0)
(1.04901 -0.114709 0)
(1.04428 -0.130189 0)
(1.03693 -0.145917 0)
(1.02677 -0.161464 0)
(1.01366 -0.176319 0)
(0.997595 -0.189951 0)
(0.978953 -0.201906 0)
(0.958605 -0.211817 0)
(0.937355 -0.219194 0)
(0.915673 -0.223242 0)
(0.894335 -0.223031 0)
(0.874516 -0.218879 0)
(0.856966 -0.21368 0)
(0.839678 -0.209435 0)
(0.820047 -0.203809 0)
(0.801242 -0.196184 0)
(0.78727 -0.188419 0)
(0.776503 -0.180334 0)
(1.02447 -0.00289679 0)
(1.02617 -0.00991878 0)
(1.029 -0.0161653 0)
(1.0327 -0.0235849 0)
(1.03706 -0.0313786 0)
(1.04169 -0.0402449 0)
(1.04623 -0.0501073 0)
(1.05034 -0.0611427 0)
(1.05363 -0.0733853 0)
(1.05569 -0.0868729 0)
(1.05613 -0.10155 0)
(1.05456 -0.1173 0)
(1.05066 -0.133913 0)
(1.04414 -0.15108 0)
(1.03472 -0.168396 0)
(1.02215 -0.185381 0)
(1.00629 -0.20153 0)
(0.98748 -0.216389 0)
(0.966539 -0.229521 0)
(0.944048 -0.240334 0)
(0.919946 -0.248443 0)
(0.894061 -0.254451 0)
(0.866648 -0.258769 0)
(0.838444 -0.259094 0)
(0.811959 -0.252895 0)
(0.791851 -0.243192 0)
(0.777524 -0.233497 0)
(0.763549 -0.222861 0)
(0.750263 -0.21211 0)
(1.02517 -0.00288977 0)
(1.02694 -0.0098823 0)
(1.0299 -0.0161179 0)
(1.03377 -0.0235347 0)
(1.03838 -0.0313379 0)
(1.04332 -0.0402511 0)
(1.04825 -0.0502002 0)
(1.05284 -0.0613834 0)
(1.05669 -0.0738634 0)
(1.05941 -0.0877109 0)
(1.0606 -0.102912 0)
(1.05987 -0.119393 0)
(1.05689 -0.136986 0)
(1.0513 -0.155425 0)
(1.04275 -0.174352 0)
(1.0309 -0.19333 0)
(1.01557 -0.211889 0)
(0.997054 -0.229599 0)
(0.976035 -0.24604 0)
(0.95284 -0.260595 0)
(0.927356 -0.272352 0)
(0.900108 -0.279945 0)
(0.872619 -0.281877 0)
(0.84643 -0.279237 0)
(0.821948 -0.276548 0)
(0.795865 -0.273729 0)
(0.767307 -0.266497 0)
(0.743034 -0.256853 0)
(0.724957 -0.246586 0)
(1.0258 -0.00288061 0)
(1.02764 -0.0098386 0)
(1.03071 -0.0160582 0)
(1.03474 -0.0234639 0)
(1.03958 -0.0312658 0)
(1.0448 -0.0402094 0)
(1.0501 -0.0502195 0)
(1.05513 -0.0615153 0)
(1.05951 -0.0741826 0)
(1.06286 -0.0883207 0)
(1.06479 -0.103952 0)
(1.06492 -0.121045 0)
(1.06286 -0.139477 0)
(1.05823 -0.159033 0)
(1.05063 -0.179399 0)
(1.03967 -0.200178 0)
(1.02517 -0.220957 0)
(1.00736 -0.241366 0)
(0.986749 -0.261023 0)
(0.963483 -0.279312 0)
(0.937134 -0.295391 0)
(0.907378 -0.30895 0)
(0.87439 -0.320948 0)
(0.838601 -0.330808 0)
(0.800942 -0.333075 0)
(0.766137 -0.325528 0)
(0.739982 -0.315025 0)
(0.718319 -0.303654 0)
(0.696281 -0.289733 0)
(1.02636 -0.0028701 0)
(1.02825 -0.00979033 0)
(1.03143 -0.0159902 0)
(1.03562 -0.0233791 0)
(1.04067 -0.0311718 0)
(1.04614 -0.0401328 0)
(1.05177 -0.0501834 0)
(1.05721 -0.0615627 0)
(1.06209 -0.0743746 0)
(1.06605 -0.0887426 0)
(1.0687 -0.104722 0)
(1.06964 -0.122324 0)
(1.06849 -0.14147 0)
(1.06483 -0.16199 0)
(1.05823 -0.183609 0)
(1.04831 -0.205974 0)
(1.03485 -0.228744 0)
(1.01805 -0.25163 0)
(0.998271 -0.2743 0)
(0.975492 -0.296246 0)
(0.949109 -0.316759 0)
(0.918896 -0.334718 0)
(0.885849 -0.347959 0)
(0.851396 -0.354046 0)
(0.817019 -0.35547 0)
(0.782528 -0.358445 0)
(0.743277 -0.357932 0)
(0.702439 -0.348671 0)
(0.670184 -0.336708 0)
(1.02686 -0.00285881 0)
(1.0288 -0.00973968 0)
(1.03208 -0.0159175 0)
(1.0364 -0.0232854 0)
(1.04164 -0.0310634 0)
(1.04734 -0.0400319 0)
(1.05328 -0.0501068 0)
(1.0591 -0.0615459 0)
(1.06445 -0.0744666 0)
(1.06897 -0.0890136 0)
(1.07228 -0.105273 0)
(1.074 -0.123293 0)
(1.07372 -0.143036 0)
(1.07103 -0.164372 0)
(1.06549 -0.187062 0)
(1.05668 -0.210803 0)
(1.04439 -0.235321 0)
(1.0288 -0.260404 0)
(1.01021 -0.28579 0)
(0.988445 -0.311069 0)
(0.962834 -0.335701 0)
(0.932697 -0.358995 0)
(0.897439 -0.380994 0)
(0.856883 -0.40326 0)
(0.810826 -0.423154 0)
(0.759707 -0.429412 0)
(0.712272 -0.421424 0)
(0.675787 -0.411376 0)
(0.641585 -0.396977 0)
(1.0273 -0.00284718 0)
(1.02929 -0.00968844 0)
(1.03266 -0.0158431 0)
(1.03709 -0.0231873 0)
(1.04251 -0.0309471 0)
(1.04842 -0.0399154 0)
(1.05464 -0.0500019 0)
(1.0608 -0.0614822 0)
(1.06657 -0.0744827 0)
(1.07161 -0.0891673 0)
(1.07555 -0.105649 0)
(1.078 -0.124008 0)
(1.07857 -0.144243 0)
(1.07684 -0.166259 0)
(1.07235 -0.189857 0)
(1.06466 -0.214779 0)
(1.05359 -0.240801 0)
(1.03934 -0.267774 0)
(1.0222 -0.295521 0)
(1.00185 -0.323748 0)
(0.977566 -0.352198 0)
(0.948704 -0.380601 0)
(0.914876 -0.407701 0)
(0.876403 -0.429881 0)
(0.833839 -0.443325 0)
(0.788716 -0.453923 0)
(0.739225 -0.468943 0)
(0.678761 -0.471938 0)
(0.618793 -0.459491 0)
(1.0277 -0.00283554 0)
(1.02973 -0.00963795 0)
(1.03317 -0.0157692 0)
(1.03771 -0.0230883 0)
(1.04329 -0.0308275 0)
(1.04939 -0.03979 0)
(1.05586 -0.0498788 0)
(1.06233 -0.0613856 0)
(1.06849 -0.0744426 0)
(1.074 -0.0892307 0)
(1.07851 -0.105885 0)
(1.08165 -0.124514 0)
(1.08303 -0.145149 0)
(1.08222 -0.167729 0)
(1.07873 -0.192091 0)
(1.07215 -0.218012 0)
(1.06232 -0.245305 0)
(1.04948 -0.273863 0)
(1.03391 -0.303596 0)
(1.01529 -0.334345 0)
(0.992822 -0.366009 0)
(0.966092 -0.398669 0)
(0.934062 -0.43214 0)
(0.894205 -0.46698 0)
(0.845881 -0.506807 0)
(0.787723 -0.546167 0)
(0.715713 -0.561219 0)
(0.644808 -0.554618 0)
(0.58861 -0.545425 0)
(1.02805 -0.00282417 0)
(1.03012 -0.0095892 0)
(1.03363 -0.0156973 0)
(1.03826 -0.0229908 0)
(1.04398 -0.0307085 0)
(1.05025 -0.0396612 0)
(1.05694 -0.0497456 0)
(1.06369 -0.0612676 0)
(1.0702 -0.0743627 0)
(1.07614 -0.0892268 0)
(1.08118 -0.106013 0)
(1.08496 -0.124855 0)
(1.08709 -0.145813 0)
(1.08713 -0.168858 0)
(1.08461 -0.193855 0)
(1.0791 -0.220612 0)
(1.0705 -0.248969 0)
(1.05905 -0.278839 0)
(1.04507 -0.310186 0)
(1.02835 -0.343 0)
(1.00808 -0.37733 0)
(0.983817 -0.413609 0)
(0.955157 -0.45265 0)
(0.920354 -0.493339 0)
(0.877481 -0.529336 0)
(0.825895 -0.554743 0)
(0.76773 -0.58659 0)
(0.692418 -0.63061 0)
(0.588213 -0.635902 0)
(1.02836 -0.00281325 0)
(1.03046 -0.00954291 0)
(1.03403 -0.0156287 0)
(1.03875 -0.022897 0)
(1.04459 -0.0305929 0)
(1.05101 -0.0395331 0)
(1.05791 -0.0496084 0)
(1.0649 -0.0611371 0)
(1.07173 -0.0742559 0)
(1.07806 -0.0891738 0)
(1.08358 -0.106059 0)
(1.08795 -0.125067 0)
(1.09076 -0.146284 0)
(1.0916 -0.169708 0)
(1.08997 -0.19523 0)
(1.08549 -0.222679 0)
(1.07805 -0.251915 0)
(1.06795 -0.28286 0)
(1.05552 -0.315488 0)
(1.0407 -0.349906 0)
(1.02287 -0.386381 0)
(1.0015 -0.42539 0)
(0.976712 -0.468114 0)
(0.946717 -0.515766 0)
(0.904543 -0.569605 0)
(0.84974 -0.639385 0)
(0.782642 -0.722391 0)
(0.673711 -0.764156 0)
(0.535334 -0.758362 0)
(1.02863 -0.00280293 0)
(1.03077 -0.0094996 0)
(1.03439 -0.0155641 0)
(1.03919 -0.0228081 0)
(1.04513 -0.0304827 0)
(1.05168 -0.0394088 0)
(1.05876 -0.049472 0)
(1.06598 -0.061001 0)
(1.07308 -0.0741328 0)
(1.07977 -0.0890875 0)
(1.08572 -0.106046 0)
(1.09061 -0.125182 0)
(1.09405 -0.146604 0)
(1.09562 -0.170335 0)
(1.09483 -0.196288 0)
(1.09129 -0.224308 0)
(1.08495 -0.254265 0)
(1.07612 -0.286085 0)
(1.06516 -0.319723 0)
(1.05212 -0.355324 0)
(1.03678 -0.393392 0)
(1.01862 -0.434526 0)
(0.997436 -0.479874 0)
(0.973555 -0.532831 0)
(0.944247 -0.594625 0)
(0.902379 -0.651242 0)
(0.842054 -0.692104 0)
(0.770262 -0.781065 0)
(0.629651 -0.903435 0)
(1.02887 -0.00279329 0)
(1.03103 -0.00945954 0)
(1.0347 -0.0155041 0)
(1.03957 -0.0227252 0)
(1.0456 -0.0303792 0)
(1.05228 -0.0392905 0)
(1.05951 -0.0493398 0)
(1.06693 -0.0608647 0)
(1.07428 -0.0740014 0)
(1.08128 -0.0889797 0)
(1.08762 -0.10599 0)
(1.09298 -0.125224 0)
(1.09699 -0.146808 0)
(1.09922 -0.170786 0)
(1.09919 -0.19709 0)
(1.09653 -0.22558 0)
(1.09118 -0.256124 0)
(1.08353 -0.288643 0)
(1.07395 -0.323075 0)
(1.06252 -0.359526 0)
(1.04946 -0.398649 0)
(1.03462 -0.441337 0)
(1.0174 -0.488389 0)
(0.999388 -0.543078 0)
(0.979916 -0.609786 0)
(0.942722 -0.686099 0)
(0.888098 -0.799384 0)
(0.826726 -0.990238 0)
(0.598213 -1.05522 0)
(0.999007 -0.00119674 0)
(0.999164 -0.00108701 0)
(0.999219 -0.000975072 0)
(0.999168 -0.000859804 0)
(0.998995 -0.000739869 0)
(0.998677 -0.000613512 0)
(0.998182 -0.000479009 0)
(0.997478 -0.000334944 0)
(0.996532 -0.000180481 0)
(0.995326 -1.57234e-05 0)
(0.993856 0.000157968 0)
(0.992146 0.000337782 0)
(0.990254 0.000519476 0)
(0.988272 0.000697697 0)
(0.986324 0.000866583 0)
(0.984557 0.00102061 0)
(0.983121 0.0011555 0)
(0.982153 0.00126909 0)
(0.981753 0.00136177 0)
(0.997655 0.000797001 0)
(0.997459 0.000965121 0)
(0.997326 0.00113944 0)
(0.997254 0.00131768 0)
(0.997254 0.0014985 0)
(0.997349 0.00167946 0)
(0.997574 0.00185719 0)
(0.997974 0.0020277 0)
(0.9986 0.00218677 0)
(0.999501 0.00233052 0)
(1.00072 0.00245619 0)
(1.00226 0.00256286 0)
(1.0041 0.00265213 0)
(1.00618 0.0027283 0)
(1.00837 0.00279815 0)
(1.01051 0.00286996 0)
(1.01242 0.0029522 0)
(1.01389 0.00305184 0)
(1.01478 0.00317298 0)
(0.992453 -0.00214038 0)
(0.992477 -0.0016581 0)
(0.992415 -0.00117961 0)
(0.992279 -0.000704169 0)
(0.992078 -0.00023203 0)
(0.991809 0.000237461 0)
(0.991464 0.000705241 0)
(0.991025 0.00117231 0)
(0.990469 0.00163968 0)
(0.989764 0.00210807 0)
(0.988882 0.00257745 0)
(0.9878 0.00304652 0)
(0.986514 0.00351224 0)
(0.985051 0.00396968 0)
(0.983473 0.00441236 0)
(0.981886 0.00483328 0)
(0.980429 0.00522642 0)
(0.979257 0.00558864 0)
(0.978519 0.00592134 0)
(0.986595 -0.00488096 0)
(0.986485 -0.00446571 0)
(0.986425 -0.00404986 0)
(0.986411 -0.00363721 0)
(0.986452 -0.00322798 0)
(0.986565 -0.00282208 0)
(0.986777 -0.00241888 0)
(0.987129 -0.00201688 0)
(0.987666 -0.00161351 0)
(0.98844 -0.0012048 0)
(0.989501 -0.000784965 0)
(0.990884 -0.000345886 0)
(0.992597 0.000123095 0)
(0.994607 0.000635025 0)
(0.996825 0.00120441 0)
(0.999101 0.00184534 0)
(1.00123 0.00256869 0)
(1.00299 0.00337876 0)
(1.00415 0.00427034 0)
(0.979763 -0.00698972 0)
(0.979778 -0.00617397 0)
(0.979751 -0.00534636 0)
(0.979682 -0.00450745 0)
(0.979565 -0.00365868 0)
(0.979386 -0.0027998 0)
(0.979121 -0.00192977 0)
(0.978738 -0.00104716 0)
(0.978192 -0.000150337 0)
(0.977429 0.000761966 0)
(0.976386 0.00168968 0)
(0.975003 0.0026302 0)
(0.973238 0.00357712 0)
(0.971082 0.0045193 0)
(0.968587 0.0054407 0)
(0.965878 0.00632165 0)
(0.963163 0.00714173 0)
(0.96072 0.00788403 0)
(0.958853 0.00853994 0)
(0.970533 -0.0117041 0)
(0.970184 -0.010942 0)
(0.969904 -0.0101639 0)
(0.969678 -0.00937572 0)
(0.9695 -0.00857928 0)
(0.969374 -0.00777711 0)
(0.969311 -0.00697237 0)
(0.969338 -0.00616853 0)
(0.969495 -0.00536924 0)
(0.969838 -0.0045778 0)
(0.970438 -0.00379635 0)
(0.971372 -0.00302453 0)
(0.972714 -0.00225778 0)
(0.974506 -0.00148574 0)
(0.976739 -0.000691079 0)
(0.979319 0.000150065 0)
(0.982053 0.00106557 0)
(0.984656 0.0020822 0)
(0.986786 0.00321863 0)
(0.96144 -0.0161736 0)
(0.961143 -0.0149231 0)
(0.960856 -0.0136497 0)
(0.960583 -0.0123554 0)
(0.960321 -0.0110438 0)
(0.960063 -0.00971729 0)
(0.959793 -0.00837747 0)
(0.959485 -0.00702561 0)
(0.959097 -0.00566207 0)
(0.958569 -0.00428624 0)
(0.957821 -0.00289697 0)
(0.956752 -0.00149349 0)
(0.955254 -7.71236e-05 0)
(0.953231 0.00134648 0)
(0.95063 0.00276505 0)
(0.947488 0.00415844 0)
(0.943963 0.00549947 0)
(0.94036 0.00675806 0)
(0.937107 0.00790831 0)
(0.949594 -0.023241 0)
(0.948849 -0.0220406 0)
(0.948196 -0.0208132 0)
(0.947625 -0.0195645 0)
(0.94713 -0.0182943 0)
(0.946709 -0.0170033 0)
(0.946369 -0.0156934 0)
(0.94612 -0.0143668 0)
(0.945984 -0.013027 0)
(0.945999 -0.0116788 0)
(0.946223 -0.0103283 0)
(0.946736 -0.00898225 0)
(0.947636 -0.00764675 0)
(0.949028 -0.00632456 0)
(0.95099 -0.00501194 0)
(0.953533 -0.0036953 0)
(0.956552 -0.00234973 0)
(0.959792 -0.000940957 0)
(0.962856 0.000567738 0)
(0.938006 -0.0310382 0)
(0.937269 -0.0292283 0)
(0.936563 -0.0273823 0)
(0.935898 -0.0255023 0)
(0.935276 -0.0235917 0)
(0.934699 -0.0216525 0)
(0.934162 -0.0196867 0)
(0.933654 -0.0176966 0)
(0.933153 -0.0156841 0)
(0.932624 -0.0136507 0)
(0.932007 -0.0115968 0)
(0.931216 -0.00952171 0)
(0.930135 -0.00742446 0)
(0.928623 -0.00530541 0)
(0.92654 -0.00316937 0)
(0.92379 -0.00102933 0)
(0.920385 0.00109049 0)
(0.916515 0.00315499 0)
(0.912578 0.00512399 0)
(0.9239 -0.0398923 0)
(0.922661 -0.038085 0)
(0.921523 -0.0362352 0)
(0.920476 -0.0343506 0)
(0.919521 -0.0324321 0)
(0.918657 -0.0304811 0)
(0.917892 -0.0284997 0)
(0.917233 -0.0264902 0)
(0.916695 -0.0244555 0)
(0.916301 -0.0223991 0)
(0.916089 -0.0203255 0)
(0.916118 -0.0182407 0)
(0.916475 -0.0161519 0)
(0.917274 -0.014066 0)
(0.918642 -0.0119873 0)
(0.920686 -0.00991252 0)
(0.923424 -0.00782598 0)
(0.926718 -0.00569657 0)
(0.93022 -0.00348107 0)
(0.909565 -0.0506041 0)
(0.908228 -0.0480772 0)
(0.906944 -0.0454891 0)
(0.905728 -0.0428447 0)
(0.904591 -0.0401483 0)
(0.903536 -0.037402 0)
(0.902567 -0.0346081 0)
(0.90168 -0.0317694 0)
(0.900867 -0.0288887 0)
(0.900106 -0.0259686 0)
(0.899362 -0.0230115 0)
(0.898576 -0.020019 0)
(0.897655 -0.0169916 0)
(0.896467 -0.0139296 0)
(0.894845 -0.0108348 0)
(0.892612 -0.00771472 0)
(0.889643 -0.00458835 0)
(0.885961 -0.00149025 0)
(0.881839 0.00153088 0)
(0.893475 -0.0615905 0)
(0.891533 -0.0589694 0)
(0.88972 -0.0562722 0)
(0.888029 -0.0535123 0)
(0.88646 -0.0506957 0)
(0.885016 -0.0478288 0)
(0.883701 -0.0449181 0)
(0.882523 -0.0419703 0)
(0.881491 -0.0389916 0)
(0.880618 -0.0359877 0)
(0.879926 -0.0329641 0)
(0.879452 -0.0299261 0)
(0.879257 -0.0268792 0)
(0.879434 -0.0238288 0)
(0.880115 -0.0207787 0)
(0.88145 -0.0177273 0)
(0.883565 -0.0146612 0)
(0.886462 -0.0115473 0)
(0.889907 -0.00833157 0)
(0.876482 -0.075651 0)
(0.87426 -0.0721883 0)
(0.872142 -0.0686245 0)
(0.870147 -0.0649697 0)
(0.868289 -0.0612284 0)
(0.866576 -0.0574025 0)
(0.865013 -0.0534936 0)
(0.863599 -0.0495036 0)
(0.862327 -0.0454345 0)
(0.861183 -0.0412885 0)
(0.860141 -0.0370681 0)
(0.859155 -0.032776 0)
(0.858154 -0.0284151 0)
(0.857028 -0.0239889 0)
(0.855614 -0.0195027 0)
(0.853701 -0.0149675 0)
(0.851067 -0.0104072 0)
(0.84757 -0.00586713 0)
(0.843311 -0.00141926 0)
(0.858198 -0.0896051 0)
(0.855205 -0.0858056 0)
(0.852402 -0.081852 0)
(0.849785 -0.0777688 0)
(0.847352 -0.0735713 0)
(0.845107 -0.0692761 0)
(0.843052 -0.0649005 0)
(0.841191 -0.0604624 0)
(0.839528 -0.05598 0)
(0.838069 -0.0514715 0)
(0.836825 -0.0469548 0)
(0.835818 -0.0424475 0)
(0.835089 -0.0379665 0)
(0.834709 -0.0335281 0)
(0.834798 -0.0291462 0)
(0.835529 -0.0248288 0)
(0.837109 -0.0205701 0)
(0.839691 -0.0163368 0)
(0.843215 -0.0120557 0)
(0.838109 -0.107376 0)
(0.834505 -0.102502 0)
(0.831094 -0.0974481 0)
(0.827902 -0.0922341 0)
(0.824951 -0.0868729 0)
(0.822258 -0.0813734 0)
(0.819834 -0.0757458 0)
(0.817683 -0.0700009 0)
(0.815805 -0.0641497 0)
(0.814192 -0.0582033 0)
(0.812827 -0.0521723 0)
(0.811678 -0.046067 0)
(0.81069 -0.0398975 0)
(0.809773 -0.0336733 0)
(0.808781 -0.0274048 0)
(0.807491 -0.0211063 0)
(0.805598 -0.0148055 0)
(0.802779 -0.00855766 0)
(0.798864 -0.00246278 0)
(0.816761 -0.125488 0)
(0.812047 -0.119906 0)
(0.807652 -0.114004 0)
(0.803586 -0.10784 0)
(0.799862 -0.101446 0)
(0.796489 -0.094863 0)
(0.79348 -0.0881319 0)
(0.79084 -0.0812963 0)
(0.788576 -0.074402 0)
(0.786688 -0.0674964 0)
(0.785177 -0.0606285 0)
(0.78405 -0.0538476 0)
(0.78332 -0.0472029 0)
(0.783029 -0.0407422 0)
(0.783258 -0.0345086 0)
(0.784162 -0.0285382 0)
(0.785985 -0.0228465 0)
(0.789018 -0.0174119 0)
(0.79345 -0.0121472 0)
(0.79286 -0.14806 0)
(0.786982 -0.14098 0)
(0.781476 -0.133545 0)
(0.776394 -0.12578 0)
(0.771779 -0.117726 0)
(0.767675 -0.109419 0)
(0.764107 -0.100901 0)
(0.761096 -0.0922191 0)
(0.758654 -0.0834185 0)
(0.75678 -0.074546 0)
(0.755462 -0.0656438 0)
(0.754671 -0.0567501 0)
(0.754356 -0.0478961 0)
(0.75443 -0.0391062 0)
(0.75475 -0.0304001 0)
(0.75508 -0.0217919 0)
(0.755044 -0.013311 0)
(0.754135 -0.00501884 0)
(0.751776 0.0029633 0)
(0.767564 -0.172231 0)
(0.75985 -0.163993 0)
(0.752713 -0.15507 0)
(0.746191 -0.145593 0)
(0.740355 -0.135635 0)
(0.735239 -0.125277 0)
(0.73089 -0.114613 0)
(0.727332 -0.103736 0)
(0.724583 -0.092748 0)
(0.722644 -0.081755 0)
(0.721504 -0.0708687 0)
(0.721143 -0.0602054 0)
(0.721537 -0.0498853 0)
(0.72267 -0.0400334 0)
(0.72456 -0.0307705 0)
(0.727293 -0.0222209 0)
(0.731102 -0.0144719 0)
(0.736338 -0.00755894 0)
(0.743522 -0.00144472 0)
(0.739289 -0.202053 0)
(0.729433 -0.191693 0)
(0.720229 -0.180533 0)
(0.711861 -0.168628 0)
(0.704402 -0.156047 0)
(0.697973 -0.142904 0)
(0.692635 -0.129309 0)
(0.688453 -0.115395 0)
(0.685457 -0.101298 0)
(0.683664 -0.0871588 0)
(0.683066 -0.0731141 0)
(0.683631 -0.0592923 0)
(0.685298 -0.0458064 0)
(0.687965 -0.0327437 0)
(0.691465 -0.0201751 0)
(0.695541 -0.00811589 0)
(0.69969 0.00339903 0)
(0.703277 0.0143067 0)
(0.705179 0.0245404 0)
(0.709868 -0.235232 0)
(0.696668 -0.223166 0)
(0.684565 -0.209702 0)
(0.673555 -0.194981 0)
(0.66388 -0.179223 0)
(0.655632 -0.162574 0)
(0.648946 -0.145243 0)
(0.643889 -0.127432 0)
(0.640525 -0.10936 0)
(0.63887 -0.0912494 0)
(0.638917 -0.0733349 0)
(0.640624 -0.0558573 0)
(0.643922 -0.0390671 0)
(0.648719 -0.0232378 0)
(0.65493 -0.00863155 0)
(0.66247 0.00440578 0)
(0.67158 0.0156125 0)
(0.682433 0.0247787 0)
(0.695901 0.0316193 0)
(0.677157 -0.275871 0)
(0.660266 -0.261091 0)
(0.644325 -0.24433 0)
(0.629988 -0.225979 0)
(0.617378 -0.206086 0)
(0.606779 -0.18496 0)
(0.59831 -0.162853 0)
(0.592124 -0.140063 0)
(0.588272 -0.116886 0)
(0.586808 -0.0936291 0)
(0.587728 -0.0705972 0)
(0.591005 -0.0480958 0)
(0.596565 -0.026426 0)
(0.60429 -0.0058443 0)
(0.613956 0.0133687 0)
(0.625366 0.0311642 0)
(0.637612 0.0474032 0)
(0.650158 0.0620159 0)
(0.661207 0.0753012 0)
(0.644644 -0.322211 0)
(0.62154 -0.304748 0)
(0.600561 -0.284688 0)
(0.581614 -0.261905 0)
(0.565221 -0.237004 0)
(0.551546 -0.210353 0)
(0.540867 -0.18237 0)
(0.533224 -0.153467 0)
(0.528745 -0.124046 0)
(0.527443 -0.0944901 0)
(0.529337 -0.0651934 0)
(0.53441 -0.036559 0)
(0.54261 -0.00900819 0)
(0.553825 0.0169391 0)
(0.567982 0.0408541 0)
(0.584566 0.0618638 0)
(0.604255 0.0794381 0)
(0.62629 0.092827 0)
(0.652001 0.100485 0)
(0.60798 -0.377957 0)