/*--------------------------------*- C++ -*----------------------------------*\
  =========                 |
  \\      /  F ield         | OpenFOAM: The Open Source CFD Toolbox
   \\    /   O peration     | Website:  https://openfoam.org
    \\  /    A nd           | Version:  10
     \\/     M anipulation  |
\*---------------------------------------------------------------------------*/
FoamFile
{
    format      ascii;
    class       volVectorField;
    location    "0";
    object      U;
}
// * * * * * * * * * * * * * * * * * * * * * * * * * * * * * * * * * * * * * //

dimensions      [0 1 -1 0 0 0 0];

internalField   nonuniform List<vector> 
18483
(
(0.999991 -0.000201621 0)
(0.999993 -0.000718645 0)
(0.999996 -0.00114694 0)
(1 -0.00161528 0)
(1.00001 -0.00206846 0)
(1.00001 -0.0025161 0)
(1.00002 -0.00294119 0)
(1.00003 -0.00333135 0)
(1.00004 -0.00367465 0)
(1.00005 -0.00396229 0)
(1.00006 -0.00418957 0)
(1.00008 -0.00436219 0)
(1.00011 -0.00449169 0)
(1.00016 -0.0046229 0)
(1.00021 -0.00480462 0)
(1.00027 -0.00505273 0)
(1.00025 -0.00531985 0)
(0.999863 -0.00551276 0)
(0.998317 -0.00558296 0)
(0.994809 -0.0055487 0)
(0.990128 -0.00554931 0)
(0.987097 -0.00568553 0)
(0.987536 -0.00581453 0)
(0.990234 -0.00578552 0)
(0.993143 -0.00562138 0)
(0.995334 -0.00540226 0)
(0.996761 -0.00518013 0)
(0.997634 -0.0049794 0)
(0.998151 -0.00480741 0)
(1.00063 -0.000640966 0)
(1.00065 -0.00225784 0)
(1.00072 -0.00356401 0)
(1.00078 -0.00496044 0)
(1.00085 -0.00626119 0)
(1.00091 -0.00750286 0)
(1.00093 -0.00863596 0)
(1.00093 -0.00962941 0)
(1.00088 -0.0104501 0)
(1.00078 -0.0110783 0)
(1.00065 -0.0115083 0)
(1.00049 -0.0117583 0)
(1.00033 -0.0118543 0)
(1.00019 -0.0117275 0)
(1.00007 -0.01128 0)
(0.999906 -0.0104662 0)
(0.999675 -0.0093695 0)
(0.999669 -0.00820994 0)
(1.00093 -0.00719676 0)
(1.0048 -0.00651795 0)
(1.01063 -0.00611287 0)
(1.01446 -0.00574179 0)
(1.01337 -0.00545362 0)
(1.00908 -0.00538935 0)
(1.00475 -0.00547599 0)
(1.00171 -0.00558663 0)
(0.999858 -0.00566498 0)
(0.99879 -0.00569841 0)
(0.998188 -0.00569368 0)
(1.00193 -0.00106933 0)
(1.00199 -0.00373652 0)
(1.00214 -0.00587453 0)
(1.00229 -0.00814701 0)
(1.00243 -0.0102298 0)
(1.00251 -0.0121983 0)
(1.00251 -0.0139708 0)
(1.0024 -0.0155083 0)
(1.00217 -0.016768 0)
(1.00181 -0.0177309 0)
(1.00135 -0.018394 0)
(1.00082 -0.0187517 0)
(1.00028 -0.0188302 0)
(0.999749 -0.0186978 0)
(0.999173 -0.0185292 0)
(0.998493 -0.0185968 0)
(0.997696 -0.0189633 0)
(0.996603 -0.0194047 0)
(0.994492 -0.0196244 0)
(0.990418 -0.0193192 0)
(0.985049 -0.0183536 0)
(0.98173 -0.0170683 0)
(0.982977 -0.0158269 0)
(0.986968 -0.0146323 0)
(0.990617 -0.0135171 0)
(0.992907 -0.0125653 0)
(0.994137 -0.0117842 0)
(0.994745 -0.0111505 0)
(0.995018 -0.0106366 0)
(1.00354 -0.00145913 0)
(1.00366 -0.00507402 0)
(1.00391 -0.00797697 0)
(1.00415 -0.0110707 0)
(1.00437 -0.0139036 0)
(1.00449 -0.0165958 0)
(1.00446 -0.0190334 0)
(1.00424 -0.0211707 0)
(1.00381 -0.0229445 0)
(1.00318 -0.0243096 0)
(1.00239 -0.0252383 0)
(1.0015 -0.0257168 0)
(1.00053 -0.0257902 0)
(0.999526 -0.0255596 0)
(0.99852 -0.0250562 0)
(0.997581 -0.024071 0)
(0.996765 -0.0224071 0)
(0.996186 -0.020273 0)
(0.996433 -0.0181212 0)
(0.998631 -0.0163833 0)
(1.00271 -0.0153756 0)
(1.00555 -0.0149177 0)
(1.00407 -0.0145388 0)
(0.999613 -0.0141706 0)
(0.995441 -0.0138508 0)
(0.992742 -0.013502 0)
(0.991178 -0.013111 0)
(0.990262 -0.0126961 0)
(0.989691 -0.0122759 0)
(1.00528 -0.00179919 0)
(1.00547 -0.00624141 0)
(1.00583 -0.00983308 0)
(1.00618 -0.0136888 0)
(1.00651 -0.0172496 0)
(1.00669 -0.020679 0)
(1.00665 -0.0238311 0)
(1.00634 -0.0266494 0)
(1.00573 -0.0290419 0)
(1.0048 -0.030943 0)
(1.00359 -0.032321 0)
(1.00212 -0.0331913 0)
(1.00045 -0.033603 0)
(0.998666 -0.0336006 0)
(0.996853 -0.0332438 0)
(0.995022 -0.0327536 0)
(0.993064 -0.032459 0)
(0.990834 -0.0324417 0)
(0.987981 -0.0323841 0)
(0.983883 -0.031811 0)
(0.978749 -0.0304261 0)
(0.975032 -0.0283921 0)
(0.975347 -0.0263168 0)
(0.978517 -0.0244782 0)
(0.981408 -0.0227772 0)
(0.982931 -0.0212714 0)
(0.983513 -0.0199875 0)
(0.983622 -0.0189001 0)
(0.983513 -0.0179864 0)
(1.00711 -0.00208489 0)
(1.00738 -0.00722465 0)
(1.00786 -0.011419 0)
(1.00837 -0.0159651 0)
(1.00884 -0.0202193 0)
(1.00913 -0.0243868 0)
(1.00913 -0.0282947 0)
(1.00877 -0.0318812 0)
(1.00799 -0.0350353 0)
(1.00675 -0.0376834 0)
(1.00508 -0.0397772 0)
(1.00308 -0.0412963 0)
(1.00086 -0.042222 0)
(0.998555 -0.0425471 0)
(0.996248 -0.0423051 0)
(0.993984 -0.0415232 0)
(0.991811 -0.0401007 0)
(0.989783 -0.0379231 0)
(0.988227 -0.0352471 0)
(0.988068 -0.0326868 0)
(0.989872 -0.0307708 0)
(0.991707 -0.0296708 0)
(0.990409 -0.0289067 0)
(0.98616 -0.0280574 0)
(0.981961 -0.0272681 0)
(0.979213 -0.0265292 0)
(0.977544 -0.0257804 0)
(0.976467 -0.0250423 0)
(0.97572 -0.0243292 0)
(1.009 -0.002314 0)
(1.00937 -0.00801568 0)
(1.01 -0.012717 0)
(1.0107 -0.0178657 0)
(1.01137 -0.0227567 0)
(1.01182 -0.0276373 0)
(1.01195 -0.0323151 0)
(1.01162 -0.0367281 0)
(1.01075 -0.040744 0)
(1.00932 -0.0442585 0)
(1.00738 -0.0471658 0)
(1.00501 -0.0493804 0)
(1.00232 -0.0508573 0)
(0.999411 -0.0516096 0)
(0.996313 -0.0517031 0)
(0.99305 -0.051309 0)
(0.989594 -0.0507899 0)
(0.985843 -0.0504847 0)
(0.981662 -0.0503745 0)
(0.976796 -0.0500502 0)
(0.971214 -0.0490035 0)
(0.966333 -0.0469784 0)
(0.964641 -0.0444377 0)
(0.966113 -0.0420715 0)
(0.967962 -0.0398534 0)
(0.968687 -0.0377644 0)
(0.968636 -0.0359293 0)
(0.968268 -0.0343428 0)
(0.967802 -0.0329877 0)
(1.01088 -0.00248892 0)
(1.01137 -0.00862175 0)
(1.01218 -0.0137313 0)
(1.0131 -0.019385 0)
(1.01402 -0.0248378 0)
(1.01472 -0.0303781 0)
(1.01504 -0.0358005 0)
(1.01484 -0.0410429 0)
(1.01402 -0.0459491 0)
(1.01251 -0.0503849 0)
(1.01033 -0.0542143 0)
(1.00751 -0.0573385 0)
(1.00413 -0.0597189 0)
(1.0003 -0.061363 0)
(0.996183 -0.062292 0)
(0.991932 -0.0625062 0)
(0.987731 -0.0619242 0)
(0.983763 -0.0603673 0)
(0.98027 -0.0578759 0)
(0.97786 -0.0549768 0)
(0.977228 -0.052391 0)
(0.977518 -0.0506556 0)
(0.97593 -0.0495774 0)
(0.971461 -0.0484249 0)
(0.966547 -0.0472 0)
(0.96311 -0.0460989 0)
(0.960906 -0.045006 0)
(0.959371 -0.0439273 0)
(0.958231 -0.0428894 0)
(1.01271 -0.00261713 0)
(1.01333 -0.00906681 0)
(1.01433 -0.0144926 0)
(1.01551 -0.0205551 0)
(1.01671 -0.0264857 0)
(1.0177 -0.0326116 0)
(1.0183 -0.0387211 0)
(1.01832 -0.0447578 0)
(1.01762 -0.050555 0)
(1.0161 -0.0559713 0)
(1.01372 -0.0608612 0)
(1.01051 -0.0650955 0)
(1.00659 -0.0685585 0)
(1.00215 -0.0711422 0)
(0.997377 -0.0727567 0)
(0.99241 -0.0733639 0)
(0.987293 -0.073161 0)
(0.98199 -0.0727469 0)
(0.976449 -0.0726422 0)
(0.970545 -0.0726569 0)
(0.964019 -0.072127 0)
(0.957443 -0.0704734 0)
(0.952924 -0.0677987 0)
(0.951774 -0.0650047 0)
(0.952128 -0.0624176 0)
(0.951865 -0.0598494 0)
(0.95096 -0.0574826 0)
(0.949904 -0.0553911 0)
(0.94888 -0.0535604 0)
(1.01446 -0.0027085 0)
(1.0152 -0.00938288 0)
(1.01641 -0.0150464 0)
(1.01786 -0.0214307 0)
(1.01938 -0.0277551 0)
(1.0207 -0.0343836 0)
(1.02163 -0.0411061 0)
(1.02194 -0.047879 0)
(1.02146 -0.0545367 0)
(1.02006 -0.0609341 0)
(1.01769 -0.0669015 0)
(1.01436 -0.0722572 0)
(1.01018 -0.0768212 0)
(1.00524 -0.0804567 0)
(0.999665 -0.0831143 0)
(0.993553 -0.0848392 0)
(0.98711 -0.0857002 0)
(0.980743 -0.0855913 0)
(0.974945 -0.0842286 0)
(0.970104 -0.0817098 0)
(0.966714 -0.0787579 0)
(0.964783 -0.0762958 0)
(0.962328 -0.0746984 0)
(0.957286 -0.0732154 0)
(0.950984 -0.0714686 0)
(0.945995 -0.0698517 0)
(0.942609 -0.0683117 0)
(0.940111 -0.0667738 0)
(0.938161 -0.0652958 0)
(1.01608 -0.00277262 0)
(1.01695 -0.00960149 0)
(1.01836 -0.0154392 0)
(1.0201 -0.0220714 0)
(1.02195 -0.0287115 0)
(1.02364 -0.0357592 0)
(1.02495 -0.0430111 0)
(1.02563 -0.0504398 0)
(1.02548 -0.057883 0)
(1.02436 -0.0651927 0)
(1.02216 -0.0721867 0)
(1.01886 -0.0786767 0)
(1.01445 -0.0844852 0)
(1.00898 -0.0894662 0)
(1.00259 -0.093497 0)
(0.995552 -0.0964382 0)
(0.988237 -0.0981528 0)
(0.980947 -0.0987954 0)
(0.973627 -0.099035 0)
(0.965957 -0.0994257 0)
(0.95767 -0.099583 0)
(0.948861 -0.0985484 0)
(0.94098 -0.0959502 0)
(0.936337 -0.0927419 0)
(0.934644 -0.0897536 0)
(0.933226 -0.0867238 0)
(0.931167 -0.0837469 0)
(0.929059 -0.0810654 0)
(0.927147 -0.0786683 0)
(1.01756 -0.00281758 0)
(1.01855 -0.00974959 0)
(1.02017 -0.0157121 0)
(1.02219 -0.0225321 0)
(1.02439 -0.0294189 0)
(1.02647 -0.036807 0)
(1.02819 -0.0445025 0)
(1.02929 -0.0524943 0)
(1.02956 -0.0606286 0)
(1.0288 -0.0687688 0)
(1.02687 -0.076747 0)
(1.02368 -0.0843933 0)
(1.0192 -0.0915215 0)
(1.01348 -0.0979152 0)
(1.00667 -0.103342 0)
(0.999001 -0.107622 0)
(0.99072 -0.110708 0)
(0.982134 -0.11266 0)
(0.973626 -0.113294 0)
(0.965675 -0.112209 0)
(0.958905 -0.109623 0)
(0.953906 -0.10673 0)
(0.949753 -0.104647 0)
(0.943816 -0.102927 0)
(0.935644 -0.100686 0)
(0.928113 -0.0984016 0)
(0.922764 -0.09632 0)
(0.918784 -0.0942031 0)
(0.915598 -0.092138 0)
(1.01891 -0.00284961 0)
(1.02002 -0.00984807 0)
(1.02185 -0.015898 0)
(1.02414 -0.0228584 0)
(1.02667 -0.0299334 0)
(1.02915 -0.0375913 0)
(1.0313 -0.0456494 0)
(1.03286 -0.0541144 0)
(1.03358 -0.0628469 0)
(1.03325 -0.0717325 0)
(1.03169 -0.080622 0)
(1.02881 -0.0893541 0)
(1.02456 -0.0977323 0)
(1.01891 -0.105523 0)
(1.0119 -0.112498 0)
(1.00363 -0.118488 0)
(0.994425 -0.123319 0)
(0.984768 -0.126779 0)
(0.97494 -0.128928 0)
(0.964736 -0.130414 0)
(0.953852 -0.131672 0)
(0.942127 -0.131941 0)
(0.930244 -0.130105 0)
(0.920922 -0.12669 0)
(0.916082 -0.123242 0)
(0.913246 -0.119795 0)
(0.909769 -0.116083 0)
(0.906106 -0.112624 0)
(0.902855 -0.109504 0)
(1.02015 -0.00287306 0)
(1.02136 -0.00991204 0)
(1.02338 -0.0160215 0)
(1.02594 -0.0230858 0)
(1.0288 -0.0303005 0)
(1.03167 -0.0381681 0)
(1.03426 -0.0465176 0)
(1.03628 -0.0553733 0)
(1.03748 -0.0646127 0)
(1.03765 -0.0741418 0)
(1.0366 -0.0838264 0)
(1.0342 -0.0935233 0)
(1.03036 -0.103071 0)
(1.02495 -0.112282 0)
(1.01791 -0.120936 0)
(1.00935 -0.128773 0)
(0.999609 -0.135481 0)
(0.989058 -0.140776 0)
(0.977894 -0.144446 0)
(0.966452 -0.146097 0)
(0.955609 -0.145371 0)
(0.94649 -0.14293 0)
(0.939377 -0.14055 0)
(0.931991 -0.138931 0)
(0.921664 -0.13673 0)
(0.910332 -0.133854 0)
(0.901681 -0.131221 0)
(0.895465 -0.128514 0)
(0.89044 -0.125695 0)
(1.02127 -0.00289069 0)
(1.02258 -0.00995203 0)
(1.02478 -0.0161005 0)
(1.02759 -0.0232402 0)
(1.03077 -0.0305556 0)
(1.03401 -0.0385831 0)
(1.03703 -0.0471627 0)
(1.03952 -0.0563343 0)
(1.04123 -0.0659906 0)
(1.04194 -0.0760555 0)
(1.04146 -0.0864156 0)
(1.03963 -0.0969649 0)
(1.0363 -0.107596 0)
(1.03132 -0.118167 0)
(1.0246 -0.128451 0)
(1.01617 -0.138156 0)
(1.0062 -0.146963 0)
(0.994922 -0.154522 0)
(0.982548 -0.160498 0)
(0.969233 -0.164992 0)
(0.955043 -0.168691 0)
(0.939794 -0.171565 0)
(0.923294 -0.172087 0)
(0.90775 -0.169409 0)
(0.897532 -0.165441 0)
(0.892321 -0.161538 0)
(0.887178 -0.156972 0)
(0.881173 -0.152303 0)
(0.875814 -0.148106 0)
(1.02229 -0.00290413 0)
(1.02369 -0.00997548 0)
(1.02606 -0.0161481 0)
(1.02909 -0.0233412 0)
(1.03257 -0.0307262 0)
(1.03617 -0.0388734 0)
(1.0396 -0.047631 0)
(1.04255 -0.0570524 0)
(1.04477 -0.0670452 0)
(1.04603 -0.0775507 0)
(1.04613 -0.0884802 0)
(1.04491 -0.0997643 0)
(1.04223 -0.111339 0)
(1.03793 -0.123111 0)
(1.03186 -0.134907 0)
(1.02388 -0.146489 0)
(1.01401 -0.157534 0)
(1.00243 -0.167578 0)
(0.989275 -0.176059 0)
(0.974769 -0.182371 0)
(0.959736 -0.185713 0)
(0.945501 -0.185734 0)
(0.9335 -0.183994 0)
(0.923348 -0.182932 0)
(0.910803 -0.181858 0)
(0.894442 -0.179034 0)
(0.879976 -0.175823 0)
(0.869957 -0.172614 0)
(0.862021 -0.168827 0)
(1.02322 -0.00291436 0)
(1.0247 -0.00998756 0)
(1.02722 -0.0161742 0)
(1.03046 -0.023403 0)
(1.03421 -0.0308334 0)
(1.03815 -0.039068 0)
(1.04196 -0.0479604 0)
(1.04536 -0.0575764 0)
(1.04808 -0.0678384 0)
(1.04987 -0.0787029 0)
(1.05056 -0.0900993 0)
(1.05 -0.101984 0)
(1.04808 -0.114333 0)
(1.04463 -0.127126 0)
(1.03941 -0.14029 0)
(1.03218 -0.153657 0)
(1.02287 -0.166915 0)
(1.01147 -0.179576 0)
(0.997912 -0.19105 0)
(0.982201 -0.200882 0)
(0.964604 -0.209319 0)
(0.945222 -0.216927 0)
(0.923654 -0.222536 0)
(0.90062 -0.2233 0)
(0.881481 -0.219675 0)
(0.870851 -0.215271 0)
(0.863454 -0.210122 0)
(0.854052 -0.203766 0)
(0.845057 -0.197853 0)
(1.02407 -0.00292203 0)
(1.02563 -0.00999177 0)
(1.02828 -0.0161853 0)
(1.0317 -0.0234362 0)
(1.03571 -0.0308932 0)
(1.03997 -0.0391901 0)
(1.04414 -0.0481826 0)
(1.04796 -0.057948 0)
(1.05114 -0.0684233 0)
(1.05345 -0.0795739 0)
(1.05473 -0.0913391 0)
(1.05487 -0.103695 0)
(1.05375 -0.11666 0)
(1.05121 -0.130294 0)
(1.04699 -0.144625 0)
(1.04082 -0.159576 0)
(1.03249 -0.174921 0)
(1.02179 -0.190247 0)
(1.00845 -0.204935 0)
(0.992405 -0.218134 0)
(0.974147 -0.228568 0)
(0.954874 -0.234604 0)
(0.936375 -0.23609 0)
(0.920781 -0.236331 0)
(0.905402 -0.237864 0)
(0.8838 -0.23739 0)
(0.859836 -0.234069 0)
(0.84239 -0.230541 0)
(0.829599 -0.225839 0)
(1.02484 -0.00292761 0)
(1.02648 -0.00999028 0)
(1.02925 -0.016186 0)
(1.03284 -0.0234483 0)
(1.03709 -0.0309177 0)
(1.04162 -0.0392576 0)
(1.04614 -0.0483221 0)
(1.05035 -0.0582005 0)
(1.05397 -0.0688417 0)
(1.05678 -0.0802148 0)
(1.05864 -0.0922646 0)
(1.05944 -0.104983 0)
(1.0591 -0.118423 0)
(1.0575 -0.132709 0)
(1.05441 -0.147963 0)
(1.04955 -0.164236 0)
(1.04257 -0.181447 0)
(1.03308 -0.199294 0)
(1.02064 -0.217202 0)
(1.00481 -0.234366 0)
(0.985441 -0.250158 0)
(0.962507 -0.265032 0)
(0.935949 -0.279198 0)
(0.905521 -0.289026 0)
(0.874182 -0.289956 0)
(0.851596 -0.285527 0)
(0.83916 -0.280516 0)
(0.825514 -0.272969 0)
(0.81004 -0.264455 0)
(1.02555 -0.00293155 0)
(1.02725 -0.00998454 0)
(1.03013 -0.0161792 0)
(1.03387 -0.0234446 0)
(1.03834 -0.0309164 0)
(1.04314 -0.0392844 0)
(1.04796 -0.0483983 0)
(1.05254 -0.0583603 0)
(1.05658 -0.0691288 0)
(1.05986 -0.0806732 0)
(1.06224 -0.0929409 0)
(1.06366 -0.105932 0)
(1.06407 -0.119716 0)
(1.06342 -0.134466 0)
(1.06153 -0.150398 0)
(1.05811 -0.167705 0)
(1.05276 -0.186481 0)
(1.04496 -0.206592 0)
(1.03403 -0.227631 0)
(1.0193 -0.248891 0)
(1.00047 -0.269053 0)
(0.978012 -0.285699 0)
(0.953499 -0.295901 0)
(0.929757 -0.300295 0)
(0.908878 -0.305359 0)
(0.883338 -0.311571 0)
(0.847548 -0.311651 0)
(0.81533 -0.30816 0)
(0.793557 -0.303469 0)
(1.02619 -0.00293428 0)
(1.02794 -0.00997557 0)
(1.03093 -0.0161666 0)
(1.03481 -0.0234294 0)
(1.03948 -0.0308962 0)
(1.04451 -0.0392809 0)
(1.04962 -0.0484266 0)
(1.05454 -0.0584489 0)
(1.05896 -0.069314 0)
(1.06267 -0.0809898 0)
(1.06555 -0.0934223 0)
(1.06753 -0.10661 0)
(1.06866 -0.120625 0)
(1.06893 -0.135675 0)
(1.06823 -0.152058 0)
(1.0663 -0.170104 0)
(1.06277 -0.19009 0)
(1.05702 -0.212099 0)
(1.04822 -0.23592 0)
(1.03546 -0.261006 0)
(1.01786 -0.286296 0)
(0.994449 -0.311026 0)
(0.964822 -0.33637 0)
(0.928823 -0.36159 0)
(0.885879 -0.377554 0)
(0.843745 -0.378316 0)
(0.816868 -0.373816 0)
(0.797802 -0.367811 0)
(0.772707 -0.356657 0)
(1.02676 -0.00293612 0)
(1.02856 -0.00996424 0)
(1.03164 -0.01615 0)
(1.03565 -0.023406 0)
(1.04051 -0.0308628 0)
(1.04574 -0.0392556 0)
(1.05113 -0.0484192 0)
(1.05635 -0.0584842 0)
(1.06113 -0.0694217 0)
(1.06523 -0.0811975 0)
(1.06856 -0.0937515 0)
(1.07108 -0.107073 0)
(1.07287 -0.121229 0)
(1.07399 -0.136443 0)
(1.07442 -0.153082 0)
(1.07398 -0.171584 0)
(1.07235 -0.19241 0)
(1.06892 -0.215885 0)
(1.06271 -0.242045 0)
(1.0526 -0.270665 0)
(1.03737 -0.301021 0)
(1.01602 -0.331164 0)
(0.989187 -0.35715 0)
(0.95885 -0.374055 0)
(0.9284 -0.384256 0)
(0.898065 -0.399573 0)
(0.853948 -0.413449 0)
(0.798232 -0.413733 0)
(0.756399 -0.410095 0)
(1.02727 -0.00293729 0)
(1.02912 -0.00995131 0)
(1.03229 -0.0161307 0)
(1.03641 -0.023377 0)
(1.04143 -0.0308204 0)
(1.04686 -0.0392147 0)
(1.05249 -0.0483859 0)
(1.05799 -0.05848 0)
(1.06309 -0.0694705 0)
(1.06756 -0.081321 0)
(1.0713 -0.0939625 0)
(1.07431 -0.107371 0)
(1.07669 -0.121599 0)
(1.07858 -0.136872 0)
(1.08006 -0.1536 0)
(1.08105 -0.17231 0)
(1.08132 -0.193622 0)
(1.08033 -0.21811 0)
(1.07704 -0.246092 0)
(1.07017 -0.277609 0)
(1.05839 -0.312266 0)
(1.03984 -0.348772 0)
(1.01247 -0.386716 0)
(0.97547 -0.429093 0)
(0.927196 -0.473147 0)
(0.865614 -0.498456 0)
(0.807926 -0.498747 0)
(0.772675 -0.495929 0)
(0.737872 -0.487318 0)
(1.02773 -0.00293793 0)
(1.02962 -0.00993744 0)
(1.03286 -0.0161097 0)
(1.03708 -0.0233446 0)
(1.04226 -0.0307726 0)
(1.04785 -0.0391636 0)
(1.05371 -0.0483346 0)
(1.05947 -0.0584475 0)
(1.06486 -0.0694755 0)
(1.06967 -0.081381 0)
(1.07378 -0.0940845 0)
(1.07722 -0.107545 0)
(1.08012 -0.121795 0)
(1.0827 -0.137047 0)
(1.08513 -0.15373 0)
(1.08746 -0.172444 0)
(1.08956 -0.193936 0)
(1.09099 -0.218999 0)
(1.09081 -0.248248 0)
(1.08759 -0.281993 0)
(1.07982 -0.320341 0)
(1.06556 -0.362886 0)
(1.04301 -0.407306 0)
(1.0127 -0.447569 0)
(0.975845 -0.475267 0)
(0.935867 -0.497176 0)
(0.888405 -0.53388 0)
(0.811779 -0.559007 0)
(0.727162 -0.557185 0)
(1.02813 -0.00293817 0)
(1.03006 -0.00992318 0)
(1.03337 -0.016088 0)
(1.03768 -0.0233102 0)
(1.04299 -0.0307219 0)
(1.04874 -0.0391062 0)
(1.0548 -0.0482714 0)
(1.06079 -0.0583951 0)
(1.06645 -0.0694486 0)
(1.07156 -0.081394 0)
(1.076 -0.0941408 0)
(1.07982 -0.107629 0)
(1.08319 -0.121864 0)
(1.08638 -0.137036 0)
(1.08966 -0.153576 0)
(1.0932 -0.172133 0)
(1.097 -0.193556 0)
(1.10076 -0.218802 0)
(1.10369 -0.248774 0)
(1.10437 -0.284098 0)
(1.10108 -0.325142 0)
(1.09227 -0.372103 0)
(1.07525 -0.424071 0)
(1.04533 -0.481258 0)
(1.00081 -0.551293 0)
(0.937623 -0.629755 0)
(0.846269 -0.671614 0)
(0.759021 -0.671208 0)
(0.703305 -0.671853 0)
(1.0285 -0.00293807 0)
(1.03046 -0.00990897 0)
(1.03383 -0.0160662 0)
(1.03822 -0.0232753 0)
(1.04365 -0.0306704 0)
(1.04953 -0.0390456 0)
(1.05577 -0.0482013 0)
(1.06196 -0.0583301 0)
(1.06787 -0.0693999 0)
(1.07325 -0.0813738 0)
(1.07799 -0.0941503 0)
(1.08214 -0.107647 0)
(1.08592 -0.121843 0)
(1.08964 -0.136898 0)
(1.09366 -0.153226 0)
(1.09828 -0.171509 0)
(1.10364 -0.19267 0)
(1.10957 -0.217789 0)
(1.11544 -0.247988 0)
(1.12009 -0.28424 0)
(1.12161 -0.327118 0)
(1.11835 -0.377388 0)
(1.10857 -0.436134 0)
(1.08852 -0.501324 0)
(1.05652 -0.563555 0)
(1.01296 -0.608516 0)
(0.960687 -0.656593 0)
(0.879355 -0.74205 0)
(0.736573 -0.777907 0)
(1.02882 -0.00293771 0)
(1.03081 -0.00989513 0)
(1.03423 -0.016045 0)
(1.03869 -0.0232409 0)
(1.04423 -0.0306197 0)
(1.05023 -0.0389842 0)
(1.05663 -0.0481281 0)
(1.06301 -0.0582575 0)
(1.06913 -0.0693368 0)
(1.07475 -0.0813308 0)
(1.07976 -0.0941266 0)
(1.08421 -0.107621 0)
(1.08833 -0.121763 0)
(1.09251 -0.136675 0)
(1.09717 -0.152752 0)
(1.10273 -0.170678 0)
(1.10948 -0.191434 0)
(1.11741 -0.216196 0)
(1.126 -0.246218 0)
(1.1344 -0.282774 0)
(1.14088 -0.326782 0)
(1.14342 -0.37902 0)
(1.14157 -0.441379 0)
(1.13194 -0.514757 0)
(1.10265 -0.599036 0)
(1.05245 -0.712758 0)
(0.980664 -0.864003 0)
(0.834664 -0.951149 0)
(0.654425 -0.94361 0)
(1.0291 -0.00293717 0)
(1.03112 -0.00988192 0)
(1.03459 -0.0160246 0)
(1.03911 -0.0232078 0)
(1.04474 -0.0305708 0)
(1.05085 -0.038924 0)
(1.0574 -0.0480547 0)
(1.06394 -0.0581817 0)
(1.07025 -0.0692657 0)
(1.07608 -0.0812731 0)
(1.08132 -0.094081 0)
(1.08603 -0.107566 0)
(1.09046 -0.121645 0)
(1.09502 -0.136405 0)
(1.10022 -0.152207 0)
(1.10659 -0.169729 0)
(1.11457 -0.189984 0)
(1.12429 -0.214226 0)
(1.13537 -0.243795 0)
(1.14712 -0.28012 0)
(1.15841 -0.324538 0)
(1.16707 -0.37786 0)
(1.17227 -0.441958 0)
(1.17371 -0.521859 0)
(1.16446 -0.618175 0)
(1.13888 -0.713333 0)
(1.09326 -0.787679 0)
(1.02628 -0.910247 0)
(0.851812 -1.11442 0)
(1.02935 -0.00293648 0)
(1.03139 -0.00986951 0)
(1.0349 -0.0160053 0)
(1.03949 -0.0231763 0)
(1.04519 -0.0305244 0)
(1.0514 -0.038866 0)
(1.05807 -0.0479831 0)
(1.06476 -0.0581056 0)
(1.07124 -0.0691907 0)
(1.07726 -0.0812068 0)
(1.08271 -0.0940214 0)
(1.08765 -0.107492 0)
(1.09233 -0.121505 0)
(1.09721 -0.136111 0)
(1.10287 -0.151633 0)
(1.10993 -0.16873 0)
(1.11895 -0.188426 0)
(1.13025 -0.212035 0)
(1.14358 -0.240971 0)
(1.15832 -0.276692 0)
(1.17387 -0.320812 0)
(1.18864 -0.374543 0)
(1.2008 -0.439108 0)
(1.21288 -0.519968 0)
(1.22294 -0.622112 0)
(1.20685 -0.737376 0)
(1.16231 -0.909657 0)
(1.11001 -1.24408 0)
(0.801463 -1.42552 0)
(0.998448 -0.00466172 0)
(0.998615 -0.00452719 0)
(0.998676 -0.00439233 0)
(0.99863 -0.00425754 0)
(0.998463 -0.00412318 0)
(0.998156 -0.00398933 0)
(0.997681 -0.00385616 0)
(0.997008 -0.00372405 0)
(0.996112 -0.00359364 0)
(0.994976 -0.00346587 0)
(0.993603 -0.00334191 0)
(0.992022 -0.00322304 0)
(0.990294 -0.00311037 0)
(0.988516 -0.00300444 0)
(0.986809 -0.00290486 0)
(0.985314 -0.00280994 0)
(0.98417 -0.00271659 0)
(0.983492 -0.00262048 0)
(0.983353 -0.00251656 0)
(0.997853 -0.00566491 0)
(0.997666 -0.00562409 0)
(0.997589 -0.00557541 0)
(0.997619 -0.00552044 0)
(0.997763 -0.00545869 0)
(0.998042 -0.00538961 0)
(0.998483 -0.00531233 0)
(0.999121 -0.00522542 0)
(0.999986 -0.00512686 0)
(1.0011 -0.00501401 0)
(1.00247 -0.00488371 0)
(1.00406 -0.00473247 0)
(1.00581 -0.00455698 0)
(1.00761 -0.00435478 0)
(1.00931 -0.0041251 0)
(1.01076 -0.00386961 0)
(1.01178 -0.00359304 0)
(1.01225 -0.00330308 0)
(1.01209 -0.00300975 0)
(0.99511 -0.0102108 0)
(0.995096 -0.00981903 0)
(0.994988 -0.00942285 0)
(0.99478 -0.00901948 0)
(0.994457 -0.00860773 0)
(0.993993 -0.00818616 0)
(0.993355 -0.00775391 0)
(0.992507 -0.0073112 0)
(0.991415 -0.00685968 0)
(0.990057 -0.00640282 0)
(0.98843 -0.00594621 0)
(0.98656 -0.00549758 0)
(0.984515 -0.00506651 0)
(0.982404 -0.00466344 0)
(0.980381 -0.00429833 0)
(0.978621 -0.00397887 0)
(0.977305 -0.00370876 0)
(0.976586 -0.00348636 0)
(0.976555 -0.00330425 0)
(0.989305 -0.0118692 0)
(0.989008 -0.0114673 0)
(0.988764 -0.0110542 0)
(0.988572 -0.0106342 0)
(0.988447 -0.0102096 0)
(0.988418 -0.00978341 0)
(0.988527 -0.00935934 0)
(0.988827 -0.00894125 0)
(0.989379 -0.00853252 0)
(0.990242 -0.00813526 0)
(0.991458 -0.00774932 0)
(0.993041 -0.0073715 0)
(0.994958 -0.00699499 0)
(0.997116 -0.00660959 0)
(0.999363 -0.00620279 0)
(1.00149 -0.0057618 0)
(1.00328 -0.00527622 0)
(1.00449 -0.00474064 0)
(1.00497 -0.00415654 0)
(0.983315 -0.0172109 0)
(0.983067 -0.0164906 0)
(0.98277 -0.0157642 0)
(0.98243 -0.0150315 0)
(0.982045 -0.014294 0)
(0.981604 -0.0135522 0)
(0.981088 -0.012806 0)
(0.980465 -0.0120552 0)
(0.979694 -0.0112997 0)
(0.978728 -0.0105397 0)
(0.977518 -0.00977677 0)
(0.976034 -0.00901479 0)
(0.974272 -0.00826068 0)
(0.972277 -0.0075246 0)
(0.970154 -0.00681913 0)
(0.96807 -0.00615729 0)
(0.966237 -0.00554948 0)
(0.96488 -0.00500009 0)
(0.964193 -0.00450492 0)
(0.975166 -0.023658 0)
(0.97471 -0.0230049 0)
(0.974309 -0.02234 0)
(0.973967 -0.0216676 0)
(0.973697 -0.0209885 0)
(0.97352 -0.0203044 0)
(0.973471 -0.0196175 0)
(0.973594 -0.0189297 0)
(0.973946 -0.018243 0)
(0.974588 -0.017558 0)
(0.975583 -0.0168734 0)
(0.976978 -0.016184 0)
(0.978785 -0.0154801 0)
(0.980962 -0.0147463 0)
(0.983391 -0.0139621 0)
(0.985873 -0.0131045 0)
(0.988141 -0.0121524 0)
(0.989893 -0.011092 0)
(0.990853 -0.00992318 0)
(0.967332 -0.0318245 0)
(0.966864 -0.0307349 0)
(0.966384 -0.0296282 0)
(0.965899 -0.0285042 0)
(0.965414 -0.027364 0)
(0.964922 -0.0262072 0)
(0.964409 -0.0250324 0)
(0.963845 -0.0238373 0)
(0.963183 -0.022619 0)
(0.962358 -0.0213744 0)
(0.961288 -0.0201014 0)
(0.959885 -0.0188009 0)
(0.958072 -0.0174788 0)
(0.955814 -0.0161483 0)
(0.953147 -0.0148305 0)
(0.950209 -0.0135528 0)
(0.947249 -0.0123451 0)
(0.94461 -0.0112317 0)
(0.942663 -0.0102236 0)
(0.95734 -0.0419107 0)
(0.956571 -0.0409547 0)
(0.955859 -0.0399746 0)
(0.955199 -0.0389742 0)
(0.954597 -0.0379525 0)
(0.954063 -0.0369091 0)
(0.953613 -0.0358445 0)
(0.953275 -0.0347594 0)
(0.953092 -0.0336554 0)
(0.95312 -0.0325345 0)
(0.953437 -0.0313985 0)
(0.954132 -0.0302476 0)
(0.955288 -0.0290776 0)
(0.956963 -0.0278771 0)
(0.959145 -0.0266252 0)
(0.961715 -0.0252913 0)
(0.964422 -0.0238388 0)
(0.966895 -0.0222336 0)
(0.968693 -0.0204569 0)
(0.947949 -0.0519584 0)
(0.947067 -0.0504338 0)
(0.946187 -0.0488644 0)
(0.945316 -0.0472514 0)
(0.944457 -0.0455972 0)
(0.943608 -0.0439029 0)
(0.942761 -0.0421688 0)
(0.941898 -0.0403948 0)
(0.940986 -0.0385798 0)
(0.939971 -0.0367218 0)
(0.938772 -0.0348185 0)
(0.937281 -0.0328687 0)
(0.935369 -0.0308747 0)
(0.93291 -0.0288465 0)
(0.929825 -0.0268055 0)
(0.926144 -0.0247872 0)
(0.922059 -0.0228383 0)
(0.917968 -0.0210084 0)
(0.914429 -0.019334 0)
(0.936585 -0.0639002 0)
(0.935192 -0.0625318 0)
(0.933866 -0.0611205 0)
(0.932603 -0.0596721 0)
(0.931401 -0.0581873 0)
(0.930264 -0.0566672 0)
(0.9292 -0.0551131 0)
(0.928222 -0.0535266 0)
(0.927356 -0.0519092 0)
(0.926642 -0.0502633 0)
(0.926147 -0.0485916 0)
(0.925968 -0.046897 0)
(0.926233 -0.0451804 0)
(0.927086 -0.0434368 0)
(0.928647 -0.04165 0)
(0.930945 -0.0397875 0)
(0.933837 -0.037799 0)
(0.936951 -0.0356235 0)
(0.939695 -0.0332081 0)
(0.925458 -0.0765328 0)
(0.923891 -0.0744757 0)
(0.922351 -0.0723384 0)
(0.920844 -0.0701241 0)
(0.919376 -0.0678351 0)
(0.917945 -0.0654726 0)
(0.916544 -0.0630371 0)
(0.915163 -0.060529 0)
(0.913778 -0.0579488 0)
(0.912352 -0.0552964 0)
(0.910821 -0.0525713 0)
(0.909089 -0.049773 0)
(0.907014 -0.0469026 0)
(0.904416 -0.0439664 0)
(0.901102 -0.040982 0)
(0.896935 -0.0379858 0)
(0.891945 -0.0350374 0)
(0.886452 -0.0322146 0)
(0.881136 -0.0295935 0)
(0.912997 -0.0901791 0)
(0.910681 -0.0882379 0)
(0.908463 -0.0862131 0)
(0.906333 -0.0841139 0)
(0.904287 -0.0819458 0)
(0.902324 -0.0797153 0)
(0.900446 -0.0774293 0)
(0.89866 -0.0750951 0)
(0.896979 -0.0727194 0)
(0.895431 -0.0703092 0)
(0.894063 -0.0678712 0)
(0.892957 -0.0654125 0)
(0.892244 -0.0629394 0)
(0.892108 -0.0604547 0)
(0.892771 -0.057952 0)
(0.894429 -0.0554054 0)
(0.897136 -0.0527593 0)
(0.90064 -0.0499257 0)
(0.904272 -0.046802 0)
(0.900001 -0.106671 0)
(0.897367 -0.103919 0)
(0.894795 -0.10104 0)
(0.892299 -0.0980397 0)
(0.889891 -0.0949208 0)
(0.887574 -0.0916828 0)
(0.885348 -0.0883253 0)
(0.883206 -0.0848481 0)
(0.881133 -0.0812516 0)
(0.879105 -0.0775367 0)
(0.877077 -0.0737048 0)
(0.874975 -0.0697582 0)
(0.872677 -0.0656998 0)
(0.869993 -0.0615357 0)
(0.866662 -0.0572806 0)
(0.862388 -0.0529686 0)
(0.856956 -0.0486668 0)
(0.850446 -0.0444826 0)
(0.843485 -0.0405486 0)
(0.886329 -0.122967 0)
(0.882678 -0.120198 0)
(0.879185 -0.117247 0)
(0.87584 -0.114134 0)
(0.872636 -0.110875 0)
(0.869572 -0.107492 0)
(0.866647 -0.104004 0)
(0.863866 -0.100434 0)
(0.861238 -0.096805 0)
(0.85878 -0.0931389 0)
(0.856527 -0.089458 0)
(0.854539 -0.0857835 0)
(0.852923 -0.0821357 0)
(0.851857 -0.0785318 0)
(0.851603 -0.0749817 0)
(0.852489 -0.0714762 0)
(0.854796 -0.067968 0)
(0.858526 -0.0643499 0)
(0.863089 -0.0604534 0)
(0.871144 -0.144216 0)
(0.866824 -0.140393 0)
(0.862635 -0.136366 0)
(0.858608 -0.132142 0)
(0.854768 -0.127728 0)
(0.851137 -0.123129 0)
(0.847725 -0.118348 0)
(0.844537 -0.11339 0)
(0.841569 -0.108263 0)
(0.83881 -0.102972 0)
(0.83623 -0.0975239 0)
(0.833776 -0.0919253 0)
(0.831351 -0.0861829 0)
(0.828788 -0.0803047 0)
(0.825809 -0.0743037 0)
(0.82201 -0.0682088 0)
(0.816916 -0.062089 0)
(0.810205 -0.0560787 0)
(0.80217 -0.0503889 0)
(0.85545 -0.164952 0)
(0.84969 -0.160892 0)
(0.84421 -0.156421 0)
(0.839016 -0.151606 0)
(0.834116 -0.146479 0)
(0.829514 -0.141089 0)
(0.825221 -0.135488 0)
(0.821246 -0.129725 0)
(0.817595 -0.123856 0)
(0.814279 -0.117939 0)
(0.811316 -0.112031 0)
(0.808741 -0.106193 0)
(0.806622 -0.100484 0)
(0.805094 -0.0949609 0)
(0.804396 -0.0896755 0)
(0.804905 -0.0846623 0)
(0.807106 -0.0799105 0)
(0.811365 -0.0753282 0)
(0.817441 -0.0706843 0)
(0.83742 -0.192335 0)
(0.830296 -0.186723 0)
(0.823454 -0.180739 0)
(0.816965 -0.174354 0)
(0.81088 -0.167602 0)
(0.805259 -0.160508 0)
(0.800135 -0.153103 0)
(0.795538 -0.14543 0)
(0.791481 -0.137529 0)
(0.78797 -0.129442 0)
(0.784992 -0.121208 0)
(0.78251 -0.112858 0)
(0.780451 -0.10442 0)
(0.778675 -0.095913 0)
(0.776924 -0.0873545 0)
(0.774753 -0.0787623 0)
(0.771476 -0.070201 0)
(0.766281 -0.0618087 0)
(0.758681 -0.0538704 0)
(0.818677 -0.220214 0)
(0.809217 -0.214128 0)
(0.800295 -0.207114 0)
(0.791911 -0.199355 0)
(0.784176 -0.190939 0)
(0.777109 -0.181956 0)
(0.770773 -0.172523 0)
(0.765197 -0.162745 0)
(0.760412 -0.152742 0)
(0.756422 -0.14264 0)
(0.753232 -0.132572 0)
(0.750841 -0.122678 0)
(0.749262 -0.113107 0)
(0.748548 -0.10401 0)
(0.748847 -0.0955379 0)
(0.750477 -0.0878398 0)
(0.754009 -0.0809937 0)
(0.760144 -0.0750157 0)
(0.769403 -0.0697055 0)
(0.79711 -0.256677 0)
(0.785084 -0.248278 0)
(0.773499 -0.239011 0)
(0.76273 -0.228858 0)
(0.752788 -0.217824 0)
(0.743868 -0.206047 0)
(0.736035 -0.193621 0)
(0.729382 -0.180693 0)
(0.723946 -0.167407 0)
(0.719767 -0.153917 0)
(0.716841 -0.140365 0)
(0.715146 -0.126885 0)
(0.714616 -0.113586 0)
(0.715125 -0.100549 0)
(0.716435 -0.087832 0)
(0.7181 -0.0754309 0)
(0.719284 -0.0634223 0)
(0.718832 -0.0518941 0)
(0.714929 -0.0411067 0)
(0.775114 -0.295666 0)
(0.758701 -0.286422 0)
(0.743568 -0.27538 0)
(0.729334 -0.262598 0)
(0.71648 -0.248482 0)
(0.705057 -0.233142 0)
(0.695255 -0.21685 0)
(0.687145 -0.199838 0)
(0.680831 -0.182357 0)
(0.676321 -0.164666 0)
(0.673628 -0.147039 0)
(0.67271 -0.129757 0)
(0.673515 -0.11312 0)
(0.675981 -0.0974498 0)
(0.680095 -0.0830756 0)
(0.685984 -0.0704187 0)
(0.694219 -0.0597133 0)
(0.705415 -0.0512917 0)
(0.721333 -0.0453137 0)
(0.749478 -0.345584 0)
(0.728955 -0.333546 0)
(0.708681 -0.318941 0)
(0.690224 -0.302556 0)
(0.67348 -0.284114 0)
(0.658862 -0.264058 0)
(0.646515 -0.242679 0)
(0.636655 -0.220302 0)
(0.629302 -0.19729 0)
(0.624561 -0.173995 0)
(0.622412 -0.150758 0)
(0.622835 -0.127923 0)
(0.625753 -0.105799 0)
(0.631034 -0.084656 0)
(0.638445 -0.0647387 0)
(0.647602 -0.0460156 0)
(0.65732 -0.0287306 0)
(0.666749 -0.0127852 0)
(0.672157 0.001873 0)
(0.725675 -0.401576 0)
(0.696368 -0.387229 0)
(0.670036 -0.369993 0)
(0.645597 -0.348932 0)
(0.623891 -0.325157 0)
(0.605197 -0.299135 0)
(0.589838 -0.271276 0)
(0.577796 -0.242179 0)
(0.569321 -0.212286 0)
(0.564322 -0.18206 0)
(0.562856 -0.151965 0)
(0.564864 -0.122451 0)
(0.570281 -0.0940077 0)
(0.578995 -0.0671889 0)
(0.590887 -0.0425257 0)
(0.605679 -0.0210635 0)
(0.624361 -0.00315568 0)
(0.646191 0.00989794 0)
(0.675152 0.0167661 0)
(0.695718 -0.470304 0)
(0.659589 -0.453334 0)
(0.624716 -0.430245 0)
(0.593051 -0.402964 0)
(0.565488 -0.37226 0)
(0.542301 -0.338389 0)
(0.523401 -0.302602 0)
(0.509285 -0.265326 0)
(0.499537 -0.227211 0)