/*--------------------------------*- C++ -*----------------------------------*\
  =========                 |
  \\      /  F ield         | OpenFOAM: The Open Source CFD Toolbox
   \\    /   O peration     | Website:  https://openfoam.org
    \\  /    A nd           | Version:  10
     \\/     M anipulation  |
\*---------------------------------------------------------------------------*/
FoamFile
{
    format      ascii;
    class       volVectorField;
    location    "0";
    object      U;
}
// * * * * * * * * * * * * * * * * * * * * * * * * * * * * * * * * * * * * * //

dimensions      [0 1 -1 0 0 0 0];

internalField   nonuniform List<vector> 
18483
(
(0.999992 -0.000194252 0)
(0.999993 -0.000685586 0)
(0.999995 -0.00107337 0)
(0.999998 -0.00147499 0)
(1 -0.00183458 0)
(1.00001 -0.0021606 0)
(1.00001 -0.0024396 0)
(1.00002 -0.00266446 0)
(1.00002 -0.00283116 0)
(1.00002 -0.00294151 0)
(1 -0.00300973 0)
(0.999977 -0.00306406 0)
(0.99993 -0.0031454 0)
(0.999861 -0.00332197 0)
(0.999761 -0.0036397 0)
(0.999607 -0.00408872 0)
(0.999284 -0.00457193 0)
(0.998367 -0.00493563 0)
(0.995903 -0.00504672 0)
(0.991198 -0.00477345 0)
(0.985895 -0.00425104 0)
(0.983651 -0.00374698 0)
(0.985792 -0.00330844 0)
(0.989966 -0.00288632 0)
(0.993696 -0.00249716 0)
(0.996227 -0.00216837 0)
(0.997748 -0.00189877 0)
(0.998603 -0.00167891 0)
(0.999046 -0.00149765 0)
(1.00061 -0.000601066 0)
(1.00061 -0.00210574 0)
(1.00064 -0.00328619 0)
(1.00066 -0.00450106 0)
(1.00066 -0.00556944 0)
(1.00064 -0.00652368 0)
(1.0006 -0.00732126 0)
(1.00051 -0.00794572 0)
(1.0004 -0.00838737 0)
(1.00028 -0.00865011 0)
(1.00016 -0.00874639 0)
(1.0001 -0.00869907 0)
(1.00013 -0.00849648 0)
(1.0003 -0.008032 0)
(1.00056 -0.00721573 0)
(1.00083 -0.00605909 0)
(1.001 -0.00474133 0)
(1.00123 -0.00352923 0)
(1.00223 -0.00265223 0)
(1.00516 -0.00235537 0)
(1.00948 -0.00249353 0)
(1.01174 -0.00259433 0)
(1.00966 -0.00253318 0)
(1.00537 -0.00246422 0)
(1.0017 -0.00240958 0)
(0.999374 -0.00233142 0)
(0.998052 -0.00222816 0)
(0.997305 -0.00210823 0)
(0.996876 -0.00198363 0)
(1.0018 -0.000973227 0)
(1.00183 -0.00339834 0)
(1.00191 -0.00531792 0)
(1.00195 -0.00731209 0)
(1.00197 -0.0090801 0)
(1.0019 -0.0106819 0)
(1.00175 -0.0120376 0)
(1.0015 -0.0131132 0)
(1.00116 -0.0138727 0)
(1.00076 -0.0142979 0)
(1.00032 -0.0143775 0)
(0.99988 -0.0141156 0)
(0.999473 -0.0135642 0)
(0.999074 -0.0128349 0)
(0.998617 -0.0121951 0)
(0.998097 -0.0118626 0)
(0.997521 -0.0117597 0)
(0.996697 -0.0117049 0)
(0.994838 -0.0115312 0)
(0.990886 -0.0112076 0)
(0.985356 -0.0107098 0)
(0.981583 -0.010207 0)
(0.982271 -0.0098024 0)
(0.985721 -0.00923036 0)
(0.988976 -0.0084951 0)
(0.991135 -0.00776353 0)
(0.992458 -0.00710851 0)
(0.993282 -0.00655316 0)
(0.993813 -0.00609536 0)
(1.00325 -0.00127962 0)
(1.00332 -0.00446689 0)
(1.00348 -0.00703197 0)
(1.00359 -0.00974416 0)
(1.00364 -0.0122054 0)
(1.00355 -0.0145016 0)
(1.0033 -0.0165138 0)
(1.00285 -0.0181888 0)
(1.00221 -0.0194632 0)
(1.00139 -0.0203064 0)
(1.0004 -0.0207164 0)
(0.999297 -0.0207157 0)
(0.998123 -0.0203769 0)
(0.996946 -0.0197615 0)
(0.995837 -0.0187689 0)
(0.994882 -0.0171763 0)
(0.994116 -0.0149232 0)
(0.993829 -0.0123079 0)
(0.995094 -0.0097843 0)
(0.999333 -0.0077131 0)
(1.00565 -0.0063314 0)
(1.00932 -0.00553281 0)
(1.00688 -0.00494348 0)
(1.00091 -0.0045687 0)
(0.995682 -0.00437838 0)
(0.992441 -0.00417093 0)
(0.990637 -0.00389459 0)
(0.989651 -0.00356099 0)
(0.989109 -0.00319448 0)
(1.00477 -0.00151985 0)
(1.00491 -0.00531068 0)
(1.00517 -0.00842004 0)
(1.00539 -0.0117765 0)
(1.00552 -0.0149098 0)
(1.00546 -0.0179304 0)
(1.00515 -0.0206852 0)
(1.00455 -0.0231014 0)
(1.00364 -0.0250838 0)
(1.00244 -0.0265723 0)
(1.00101 -0.0275346 0)
(0.999435 -0.0279595 0)
(0.997798 -0.0278599 0)
(0.996173 -0.0272872 0)
(0.994567 -0.0263882 0)
(0.99291 -0.0255161 0)
(0.991175 -0.0250474 0)
(0.989396 -0.0249774 0)
(0.987164 -0.0248822 0)
(0.98333 -0.0243079 0)
(0.977757 -0.0229942 0)
(0.973652 -0.021095 0)
(0.974439 -0.0191896 0)
(0.9783 -0.0174514 0)
(0.981375 -0.0157689 0)
(0.982788 -0.0142741 0)
(0.983272 -0.0130182 0)
(0.983364 -0.0119725 0)
(0.983307 -0.0111078 0)
(1.0063 -0.00171024 0)
(1.00653 -0.00598269 0)
(1.00692 -0.00955103 0)
(1.0073 -0.0134801 0)
(1.00758 -0.017248 0)
(1.00763 -0.0209896 0)
(1.00735 -0.0245229 0)
(1.00667 -0.0277524 0)
(1.00557 -0.0305399 0)
(1.00407 -0.0327799 0)
(1.00221 -0.0343972 0)
(1.00007 -0.0353684 0)
(0.997736 -0.0357317 0)
(0.995282 -0.0355733 0)
(0.992801 -0.0349619 0)
(0.990444 -0.0338119 0)
(0.988393 -0.0318346 0)
(0.98684 -0.0289526 0)
(0.9864 -0.0256124 0)
(0.988387 -0.022448 0)
(0.993041 -0.0200532 0)
(0.996631 -0.018651 0)
(0.99463 -0.0176878 0)
(0.988486 -0.0168037 0)
(0.982985 -0.0161124 0)
(0.979691 -0.0154871 0)
(0.977836 -0.0148352 0)
(0.976745 -0.0141719 0)
(0.976072 -0.0135132 0)
(1.00783 -0.00186681 0)
(1.00818 -0.0065357 0)
(1.00873 -0.0104968 0)
(1.00933 -0.0149331 0)
(1.00983 -0.019286 0)
(1.01007 -0.0237189 0)
(1.00992 -0.0280287 0)
(1.00925 -0.0321038 0)
(1.00802 -0.0357719 0)
(1.00621 -0.0388986 0)
(1.00386 -0.0413833 0)
(1.00105 -0.043179 0)
(0.997925 -0.0442741 0)
(0.994656 -0.0446511 0)
(0.991379 -0.0443029 0)
(0.988141 -0.0434188 0)
(0.98487 -0.0425583 0)
(0.981473 -0.0421932 0)
(0.977784 -0.0421066 0)
(0.973197 -0.0416223 0)
(0.967396 -0.0401299 0)
(0.962575 -0.037456 0)
(0.962224 -0.0344002 0)
(0.96552 -0.0316993 0)
(0.968294 -0.0292184 0)
(0.969211 -0.0269783 0)
(0.969188 -0.0250749 0)
(0.968844 -0.0234638 0)
(0.968415 -0.0221096 0)
(1.00935 -0.00199918 0)
(1.00983 -0.00700164 0)
(1.01059 -0.0113015 0)
(1.01144 -0.0161847 0)
(1.01223 -0.0210677 0)
(1.01274 -0.0261478 0)
(1.01279 -0.0312118 0)
(1.01224 -0.0361427 0)
(1.01099 -0.0407437 0)
(1.009 -0.0448496 0)
(1.00631 -0.0483068 0)
(1.00306 -0.0509933 0)
(0.999408 -0.0528269 0)
(0.995517 -0.0537986 0)
(0.991463 -0.0539956 0)
(0.987325 -0.0535351 0)
(0.983319 -0.0522797 0)
(0.979786 -0.0498517 0)
(0.977119 -0.046304 0)
(0.976092 -0.0423924 0)
(0.97745 -0.0390889 0)
(0.979423 -0.0370753 0)
(0.977792 -0.0358987 0)
(0.972094 -0.0346123 0)
(0.96645 -0.0333432 0)
(0.963002 -0.0322247 0)
(0.960973 -0.031102 0)
(0.959637 -0.0300019 0)
(0.958693 -0.0289468 0)
(1.01084 -0.0021113 0)
(1.01145 -0.00739417 0)
(1.01243 -0.0119845 0)
(1.01357 -0.0172572 0)
(1.01469 -0.022613 0)
(1.01553 -0.0282881 0)
(1.01588 -0.034067 0)
(1.01555 -0.0398339 0)
(1.0144 -0.0453696 0)
(1.01238 -0.0504728 0)
(1.00951 -0.0549386 0)
(1.00586 -0.0586019 0)
(1.00157 -0.0613661 0)
(0.99678 -0.0632216 0)
(0.991641 -0.0641768 0)
(0.986347 -0.0642128 0)
(0.981017 -0.0635169 0)
(0.97557 -0.0626789 0)
(0.969911 -0.0621879 0)
(0.964001 -0.0617351 0)
(0.957698 -0.0604813 0)
(0.951845 -0.05784 0)
(0.948978 -0.0542086 0)
(0.949895 -0.05077 0)
(0.951497 -0.0477384 0)
(0.951657 -0.0448489 0)
(0.950985 -0.0422993 0)
(0.950134 -0.0400963 0)
(0.949294 -0.0381998 0)
(1.01226 -0.00220423 0)
(1.01301 -0.00771765 0)
(1.01422 -0.0125526 0)
(1.01566 -0.0181592 0)
(1.01714 -0.0239301 0)
(1.01835 -0.0301426 0)
(1.01907 -0.0365857 0)
(1.01905 -0.043152 0)
(1.01811 -0.0496104 0)
(1.01614 -0.0557427 0)
(1.0131 -0.0613213 0)
(1.00905 -0.0661596 0)
(1.0041 -0.0701109 0)
(0.99848 -0.0730702 0)
(0.992426 -0.0749777 0)
(0.986119 -0.0758527 0)
(0.979686 -0.0757593 0)
(0.973399 -0.0745206 0)
(0.967771 -0.0717859 0)
(0.9636 -0.067779 0)
(0.9617 -0.0635517 0)
(0.961488 -0.0603181 0)
(0.959795 -0.0584265 0)
(0.954601 -0.0567204 0)
(0.948421 -0.0547357 0)
(0.944089 -0.0529519 0)
(0.941359 -0.0512464 0)
(0.939396 -0.0495709 0)
(0.937902 -0.0479907 0)
(1.0136 -0.00227835 0)
(1.01448 -0.00797393 0)
(1.01591 -0.013009 0)
(1.01767 -0.0188959 0)
(1.01952 -0.0250247 0)
(1.02115 -0.0317151 0)
(1.02228 -0.0387677 0)
(1.02264 -0.0460915 0)
(1.022 -0.053457 0)
(1.0202 -0.0606431 0)
(1.01716 -0.0673996 0)
(1.01293 -0.0734902 0)
(1.00766 -0.0786857 0)
(1.00155 -0.0827946 0)
(0.994796 -0.0857243 0)
(0.987567 -0.087435 0)
(0.979977 -0.0878824 0)
(0.9721 -0.087337 0)
(0.963991 -0.086539 0)
(0.955956 -0.0859717 0)
(0.948219 -0.0852114 0)
(0.940845 -0.0832131 0)
(0.934982 -0.0794791 0)
(0.932402 -0.0752174 0)
(0.931988 -0.0715058 0)
(0.931139 -0.0679528 0)
(0.929554 -0.0646305 0)
(0.927931 -0.0617229 0)
(0.926461 -0.0591633 0)
(1.01483 -0.00233439 0)
(1.01585 -0.00816584 0)
(1.01751 -0.0133588 0)
(1.01958 -0.019475 0)
(1.02181 -0.0259063 0)
(1.02388 -0.033015 0)
(1.02548 -0.0406189 0)
(1.02629 -0.0486472 0)
(1.02606 -0.0568787 0)
(1.02457 -0.0650904 0)
(1.02174 -0.0730078 0)
(1.01756 -0.0803552 0)
(1.01211 -0.0868714 0)
(1.00549 -0.0923354 0)
(0.997863 -0.0966121 0)
(0.989419 -0.0996362 0)
(0.980303 -0.101367 0)
(0.970756 -0.101798 0)
(0.961536 -0.10071 0)
(0.953793 -0.097833 0)
(0.948336 -0.0935919 0)
(0.94501 -0.0893325 0)
(0.941885 -0.0863755 0)
(0.936465 -0.0841238 0)
(0.929268 -0.0813547 0)
(0.923168 -0.0785359 0)
(0.919028 -0.0759631 0)
(0.915965 -0.0734238 0)
(0.91354 -0.0710267 0)
(1.01596 -0.00237386 0)
(1.01712 -0.00829866 0)
(1.01899 -0.0136103 0)
(1.02138 -0.0199088 0)
(1.024 -0.0265899 0)
(1.02652 -0.0340581 0)
(1.02862 -0.0421508 0)
(1.02994 -0.0508185 0)
(1.03019 -0.0598528 0)
(1.02914 -0.0690369 0)
(1.02662 -0.078093 0)
(1.02255 -0.0867395 0)
(1.01694 -0.0947084 0)
(1.00988 -0.101735 0)
(1.00155 -0.107577 0)
(0.992202 -0.112045 0)
(0.982063 -0.114942 0)
(0.971429 -0.116161 0)
(0.960727 -0.116142 0)
(0.95026 -0.115857 0)
(0.940122 -0.115606 0)
(0.930094 -0.114382 0)
(0.920571 -0.111007 0)
(0.913541 -0.10605 0)
(0.90997 -0.101322 0)
(0.90764 -0.096999 0)
(0.904814 -0.0927093 0)
(0.901963 -0.0888311 0)
(0.899471 -0.085381 0)
(1.017 -0.00239897 0)
(1.01827 -0.00838001 0)
(1.02036 -0.0137757 0)
(1.02305 -0.020214 0)
(1.02605 -0.027096 0)
(1.02904 -0.0348672 0)
(1.03164 -0.0433853 0)
(1.0335 -0.0526231 0)
(1.0343 -0.0623926 0)
(1.03373 -0.0724937 0)
(1.03159 -0.0826598 0)
(1.02777 -0.0926088 0)
(1.02224 -0.102047 0)
(1.01509 -0.110653 0)
(1.00645 -0.1181 0)
(0.996464 -0.124142 0)
(0.985276 -0.128634 0)
(0.973116 -0.131561 0)
(0.960595 -0.132974 0)
(0.948839 -0.132476 0)
(0.938955 -0.129592 0)
(0.931218 -0.125104 0)
(0.924869 -0.120968 0)
(0.917907 -0.117936 0)
(0.909081 -0.114549 0)
(0.900199 -0.110519 0)
(0.893542 -0.106756 0)
(0.888726 -0.103109 0)
(0.884898 -0.0995761 0)
(1.01793 -0.00241221 0)
(1.01932 -0.00841867 0)
(1.02162 -0.0138686 0)
(1.02459 -0.0204098 0)
(1.02796 -0.0274485 0)
(1.0314 -0.03547 0)
(1.03451 -0.0443523 0)
(1.03693 -0.0540912 0)
(1.0383 -0.0645239 0)
(1.03829 -0.0754697 0)
(1.03666 -0.0866721 0)
(1.03328 -0.0978458 0)
(1.02809 -0.108684 0)
(1.02109 -0.118863 0)
(1.01226 -0.128054 0)
(1.00166 -0.135999 0)
(0.989471 -0.142508 0)
(0.976133 -0.147331 0)
(0.962346 -0.150265 0)
(0.948676 -0.151626 0)
(0.935087 -0.152282 0)
(0.921268 -0.152281 0)
(0.907255 -0.150154 0)
(0.894711 -0.14513 0)
(0.886242 -0.139102 0)
(0.881294 -0.133627 0)
(0.876772 -0.128078 0)
(0.872038 -0.122693 0)
(0.867905 -0.117868 0)
(1.01878 -0.00241606 0)
(1.02028 -0.00842332 0)
(1.02276 -0.0139029 0)
(1.026 -0.0205151 0)
(1.02974 -0.0276718 0)
(1.03361 -0.035896 0)
(1.03723 -0.0450847 0)
(1.04021 -0.0552559 0)
(1.04217 -0.0662727 0)
(1.04278 -0.0779721 0)
(1.04177 -0.0901094 0)
(1.03895 -0.102411 0)
(1.0342 -0.11459 0)
(1.02743 -0.126352 0)
(1.01856 -0.137368 0)
(1.00767 -0.147316 0)
(0.994998 -0.155908 0)
(0.980907 -0.16284 0)
(0.965788 -0.167894 0)
(0.950226 -0.17085 0)
(0.93523 -0.171046 0)
(0.921756 -0.168051 0)
(0.910176 -0.163404 0)
(0.899832 -0.159542 0)
(0.888551 -0.155964 0)
(0.875837 -0.15101 0)
(0.864821 -0.145692 0)
(0.856925 -0.140626 0)
(0.850806 -0.135494 0)
(1.01955 -0.00241269 0)
(1.02115 -0.00840181 0)
(1.02381 -0.0138913 0)
(1.02731 -0.0205475 0)
(1.03138 -0.0277892 0)
(1.03567 -0.0361735 0)
(1.03978 -0.0456141 0)
(1.04332 -0.0561511 0)
(1.04589 -0.0676717 0)
(1.04714 -0.0800317 0)
(1.04677 -0.0930063 0)
(1.04454 -0.106346 0)
(1.0403 -0.119786 0)
(1.03393 -0.133052 0)
(1.02537 -0.145811 0)
(1.01461 -0.157719 0)
(1.00178 -0.168516 0)
(0.987066 -0.17792 0)
(0.970785 -0.185527 0)
(0.953531 -0.190983 0)
(0.935746 -0.194563 0)
(0.917217 -0.196956 0)
(0.897774 -0.197561 0)
(0.878473 -0.194297 0)
(0.862542 -0.187553 0)
(0.852309 -0.180454 0)
(0.844923 -0.173408 0)
(0.837233 -0.165855 0)
(0.830162 -0.158791 0)
(1.02025 -0.002404 0)
(1.02194 -0.00836103 0)
(1.02476 -0.0138452 0)
(1.0285 -0.0205231 0)
(1.0329 -0.0278219 0)
(1.03757 -0.0363295 0)
(1.04215 -0.0459724 0)
(1.04624 -0.0568138 0)
(1.04941 -0.0687647 0)
(1.05129 -0.0817003 0)
(1.05156 -0.0954183 0)
(1.04997 -0.109689 0)
(1.04636 -0.124262 0)
(1.04061 -0.138881 0)
(1.03259 -0.153257 0)
(1.0222 -0.167098 0)
(1.00945 -0.180178 0)
(0.994494 -0.192168 0)
(0.977588 -0.202538 0)
(0.9591 -0.210732 0)
(0.939577 -0.216055 0)
(0.919943 -0.217414 0)
(0.901402 -0.214748 0)
(0.885067 -0.210745 0)
(0.869666 -0.207592 0)
(0.852055 -0.203039 0)
(0.83395 -0.196263 0)
(0.820026 -0.18936 0)
(0.809728 -0.182169 0)
(1.02089 -0.00239156 0)
(1.02266 -0.00830674 0)
(1.02563 -0.0137741 0)
(1.02958 -0.020456 0)
(1.03428 -0.0277887 0)
(1.03933 -0.036388 0)
(1.04436 -0.0461902 0)
(1.04896 -0.0572815 0)
(1.05271 -0.0695963 0)
(1.05521 -0.0830276 0)
(1.05614 -0.0973907 0)
(1.05524 -0.112472 0)
(1.05235 -0.128033 0)
(1.04732 -0.143857 0)
(1.03995 -0.15972 0)
(1.03011 -0.175391 0)
(1.0178 -0.190652 0)
(1.00309 -0.205174 0)
(0.986004 -0.218465 0)
(0.96663 -0.229952 0)
(0.945159 -0.239185 0)
(0.921665 -0.246495 0)
(0.896263 -0.25229 0)
(0.869484 -0.254458 0)
(0.843417 -0.250113 0)
(0.823086 -0.241785 0)
(0.809669 -0.233266 0)
(0.797402 -0.223561 0)
(0.785001 -0.213302 0)
(1.02146 -0.00237665 0)
(1.02331 -0.00824365 0)
(1.02642 -0.013686 0)
(1.03057 -0.020358 0)
(1.03555 -0.0277059 0)
(1.04094 -0.0363702 0)
(1.04639 -0.0462949 0)
(1.05148 -0.0575891 0)
(1.05578 -0.0702071 0)
(1.0589 -0.0840575 0)
(1.06049 -0.0989704 0)
(1.0603 -0.114747 0)
(1.05815 -0.131169 0)
(1.05384 -0.148057 0)
(1.04721 -0.165243 0)
(1.03815 -0.182544 0)
(1.02662 -0.199797 0)
(1.01251 -0.216761 0)
(0.99567 -0.23303 0)
(0.976055 -0.248019 0)
(0.953721 -0.260828 0)
(0.929119 -0.269985 0)
(0.903556 -0.273736 0)
(0.878888 -0.27266 0)
(0.856428 -0.271144 0)
(0.832906 -0.269744 0)
(0.805249 -0.26392 0)
(0.779996 -0.255244 0)
(0.761638 -0.246025 0)
(1.02198 -0.00236028 0)
(1.0239 -0.00817542 0)
(1.02713 -0.0135872 0)
(1.03147 -0.020239 0)
(1.0367 -0.0275871 0)
(1.04241 -0.0362944 0)
(1.04825 -0.0463102 0)
(1.05381 -0.0577661 0)
(1.05864 -0.0706331 0)
(1.06234 -0.0848336 0)
(1.06458 -0.100212 0)
(1.06508 -0.116585 0)
(1.06363 -0.133752 0)
(1.06007 -0.151556 0)
(1.05428 -0.16987 0)
(1.04615 -0.188574 0)
(1.03559 -0.207601 0)
(1.02241 -0.226814 0)
(1.00632 -0.245884 0)
(0.98715 -0.264296 0)
(0.964528 -0.281304 0)
(0.938039 -0.296427 0)
(0.907697 -0.310413 0)
(0.873902 -0.322849 0)
(0.837021 -0.328178 0)
(0.801244 -0.322893 0)
(0.774673 -0.313564 0)
(0.754885 -0.303282 0)
(0.734026 -0.289834 0)
(1.02244 -0.00234321 0)
(1.02442 -0.00810494 0)
(1.02777 -0.0134827 0)
(1.03227 -0.0201069 0)
(1.03774 -0.0274441 0)
(1.04374 -0.0361763 0)
(1.04995 -0.0462567 0)
(1.05594 -0.0578393 0)
(1.06127 -0.0709085 0)
(1.06553 -0.0854003 0)
(1.06837 -0.101172 0)
(1.06952 -0.118054 0)
(1.06876 -0.135854 0)
(1.06598 -0.154426 0)
(1.06107 -0.173683 0)
(1.05393 -0.193575 0)
(1.04448 -0.214122 0)
(1.03249 -0.235299 0)
(1.01759 -0.2569 0)
(0.999408 -0.278606 0)
(0.977382 -0.299883 0)
(0.951073 -0.319522 0)
(0.921122 -0.335079 0)
(0.888987 -0.343569 0)
(0.856636 -0.346688 0)
(0.824901 -0.351399 0)
(0.787515 -0.353669 0)
(0.744626 -0.346386 0)
(0.709788 -0.335713 0)
(1.02286 -0.00232605 0)
(1.02489 -0.0080344 0)
(1.02834 -0.0133765 0)
(1.03299 -0.019968 0)
(1.03868 -0.0272859 0)
(1.04494 -0.0360289 0)
(1.05149 -0.0461524 0)
(1.05788 -0.0578319 0)
(1.06367 -0.0710638 0)
(1.06846 -0.0857971 0)
(1.07186 -0.101899 0)
(1.07363 -0.119208 0)
(1.07356 -0.137538 0)
(1.07154 -0.156748 0)
(1.0675 -0.176787 0)
(1.06136 -0.197662 0)
(1.05308 -0.219459 0)
(1.04246 -0.242274 0)
(1.02907 -0.266065 0)
(1.0124 -0.290681 0)
(0.991821 -0.315811 0)
(0.966377 -0.340726 0)
(0.935016 -0.365237 0)
(0.89745 -0.39102 0)
(0.853113 -0.415934 0)
(0.801058 -0.427322 0)
(0.750707 -0.421701 0)
(0.714223 -0.412749 0)
(0.681947 -0.399554 0)
(1.02322 -0.00230923 0)
(1.02531 -0.0079655 0)
(1.02885 -0.0132713 0)
(1.03363 -0.0198271 0)
(1.03951 -0.0271202 0)
(1.04602 -0.0358631 0)
(1.05287 -0.0460125 0)
(1.05963 -0.0577649 0)
(1.06585 -0.0711261 0)
(1.07112 -0.0860578 0)
(1.07506 -0.102435 0)
(1.07742 -0.1201 0)
(1.07801 -0.138872 0)
(1.07671 -0.158611 0)
(1.07349 -0.17929 0)
(1.06834 -0.200956 0)
(1.06126 -0.22375 0)
(1.05208 -0.247875 0)
(1.0404 -0.273464 0)
(1.02565 -0.300544 0)
(1.00707 -0.329133 0)
(0.983728 -0.359069 0)
(0.954698 -0.38899 0)
(0.920145 -0.414914 0)
(0.880603 -0.431804 0)
(0.838065 -0.444458 0)
(0.791531 -0.463524 0)
(0.729925 -0.472275 0)
(0.663196 -0.462248 0)
(1.02354 -0.00229306 0)
(1.02567 -0.00789944 0)
(1.0293 -0.0131695 0)
(1.0342 -0.0196881 0)
(1.04026 -0.0269527 0)
(1.04697 -0.0356872 0)
(1.05411 -0.0458494 0)
(1.0612 -0.0576552 0)
(1.06781 -0.0711176 0)
(1.07353 -0.0862105 0)
(1.07798 -0.102815 0)
(1.08089 -0.120776 0)
(1.08208 -0.139916 0)
(1.08146 -0.160092 0)
(1.07901 -0.181285 0)
(1.07482 -0.203574 0)
(1.06892 -0.227143 0)
(1.06117 -0.252273 0)
(1.05129 -0.279252 0)
(1.03873 -0.308317 0)
(1.02265 -0.33968 0)
(1.0023 -0.373595 0)
(0.976222 -0.409876 0)
(0.941351 -0.448894 0)
(0.896502 -0.495061 0)
(0.839459 -0.544381 0)
(0.763485 -0.568148 0)
(0.686589 -0.563384 0)
(0.630484 -0.555884 0)
(1.02383 -0.00227775 0)
(1.026 -0.00783706 0)
(1.0297 -0.0130726 0)
(1.0347 -0.0195539 0)
(1.04092 -0.0267879 0)
(1.04783 -0.0355081 0)
(1.05522 -0.0456734 0)
(1.0626 -0.0575168 0)
(1.06958 -0.0710576 0)
(1.07571 -0.0862806 0)
(1.08061 -0.103074 0)
(1.08403 -0.121281 0)
(1.08578 -0.140725 0)
(1.08577 -0.16126 0)
(1.08405 -0.182862 0)
(1.08076 -0.205631 0)
(1.07598 -0.229787 0)
(1.06962 -0.255659 0)
(1.06151 -0.283643 0)
(1.05126 -0.314197 0)
(1.03803 -0.347717 0)
(1.02097 -0.384847 0)
(0.999352 -0.426664 0)
(0.970924 -0.472093 0)
(0.933349 -0.514306 0)
(0.886012 -0.544986 0)
(0.831359 -0.579962 0)
(0.75765 -0.634565 0)
(0.644647 -0.650559 0)
(1.02408 -0.00226344 0)
(1.02629 -0.00777888 0)
(1.03005 -0.0129815 0)
(1.03515 -0.0194263 0)
(1.0415 -0.0266291 0)
(1.04858 -0.0353311 0)
(1.0562 -0.045492 0)
(1.06386 -0.0573608 0)
(1.07116 -0.0709613 0)
(1.07766 -0.0862889 0)
(1.08298 -0.103236 0)
(1.08685 -0.121648 0)
(1.08911 -0.141344 0)
(1.08968 -0.16217 0)
(1.08863 -0.184096 0)
(1.08616 -0.207229 0)
(1.08241 -0.231815 0)
(1.07738 -0.258213 0)
(1.07093 -0.286873 0)
(1.06293 -0.318428 0)
(1.05274 -0.353546 0)
(1.03934 -0.392911 0)
(1.02272 -0.438046 0)
(1.00093 -0.490401 0)
(0.965482 -0.550823 0)
(0.914943 -0.63119 0)
(0.849705 -0.734624 0)
(0.731548 -0.793848 0)
(0.577141 -0.787688 0)
(1.0243 -0.0022502 0)
(1.02654 -0.00772524 0)
(1.03035 -0.012897 0)
(1.03555 -0.0193068 0)
(1.04201 -0.0264788 0)
(1.04925 -0.03516 0)
(1.05707 -0.0453117 0)
(1.06497 -0.0571962 0)
(1.07256 -0.0708418 0)
(1.07939 -0.0862534 0)
(1.0851 -0.103328 0)
(1.08938 -0.121909 0)
(1.0921 -0.141812 0)
(1.0932 -0.162875 0)
(1.09275 -0.185056 0)
(1.09101 -0.208462 0)
(1.08821 -0.233349 0)
(1.08439 -0.2601 0)
(1.0795 -0.28919 0)
(1.07356 -0.32132 0)
(1.06636 -0.357447 0)
(1.05694 -0.398379 0)
(1.04491 -0.445574 0)
(1.03059 -0.503077 0)
(1.01014 -0.572389 0)
(0.976425 -0.639275 0)
(0.924026 -0.690014 0)
(0.857818 -0.787162 0)
(0.711502 -0.938762 0)
(1.02449 -0.00223807 0)
(1.02676 -0.00767624 0)
(1.03062 -0.0128194 0)
(1.03589 -0.0191962 0)
(1.04247 -0.0263383 0)
(1.04984 -0.0349977 0)
(1.05784 -0.0451366 0)
(1.06596 -0.0570298 0)
(1.07381 -0.0707088 0)
(1.08094 -0.0861873 0)
(1.08698 -0.103365 0)
(1.09164 -0.122086 0)
(1.09477 -0.14216 0)
(1.09633 -0.163415 0)
(1.09643 -0.185796 0)
(1.09536 -0.209403 0)
(1.09338 -0.234491 0)
(1.09066 -0.261455 0)
(1.08721 -0.290786 0)
(1.08312 -0.323178 0)
(1.07859 -0.359754 0)
(1.07318 -0.401664 0)
(1.06598 -0.449947 0)
(1.05884 -0.508517 0)
(1.05132 -0.582547 0)
(1.02495 -0.668361 0)
(0.977933 -0.796312 0)
(0.927671 -1.03753 0)
(0.681914 -1.1628 0)
(0.999231 -0.00134403 0)
(0.999245 -0.00119924 0)
(0.999092 -0.00104931 0)
(0.998752 -0.000893351 0)
(0.998194 -0.000731366 0)
(0.997383 -0.00056428 0)
(0.996283 -0.000394498 0)
(0.994869 -0.000226194 0)
(0.993138 -6.53609e-05 0)
(0.991116 8.03855e-05 0)
(0.988871 0.000202378 0)
(0.986514 0.000291856 0)
(0.984198 0.000341228 0)
(0.982105 0.000345462 0)
(0.980425 0.000303312 0)
(0.97933 0.000218119 0)
(0.978942 9.79337e-05 0)
(0.97931 -4.51103e-05 0)
(0.980396 -0.000196146 0)
(0.996637 -0.0018658 0)
(0.996522 -0.00175717 0)
(0.996533 -0.00165784 0)
(0.996707 -0.00157139 0)
(0.997097 -0.00149919 0)
(0.997773 -0.00144194 0)
(0.998809 -0.00139898 0)
(1.00027 -0.00136749 0)
(1.00221 -0.00134194 0)
(1.00464 -0.0013138 0)
(1.00749 -0.00127166 0)
(1.01065 -0.00120204 0)
(1.01392 -0.00109091 0)
(1.01705 -0.000925764 0)
(1.01974 -0.000697979 0)
(1.02172 -0.000404815 0)
(1.02277 -5.06223e-05 0)
(1.02276 0.00035323 0)
(1.02167 0.000789783 0)
(0.99416 -0.00571552 0)
(0.994393 -0.00536763 0)
(0.994526 -0.00501863 0)
(0.994532 -0.0046664 0)
(0.994372 -0.00430869 0)
(0.993989 -0.00394135 0)
(0.993315 -0.00355921 0)
(0.992278 -0.00315681 0)
(0.990814 -0.00272917 0)
(0.988887 -0.0022727 0)
(0.986502 -0.00178623 0)
(0.983729 -0.00127164 0)
(0.980713 -0.000734057 0)
(0.977668 -0.000181451 0)
(0.974864 0.000376488 0)
(0.972589 0.000929776 0)
(0.971099 0.00146958 0)
(0.970572 0.0019893 0)
(0.971066 0.00248495 0)
(0.988811 -0.00282237 0)
(0.988646 -0.00244342 0)
(0.988583 -0.00204495 0)
(0.988626 -0.00163312 0)
(0.988798 -0.00121228 0)
(0.989133 -0.000788349 0)
(0.989683 -0.000368548 0)
(0.990504 3.91673e-05 0)
(0.99165 0.000426809 0)
(0.993158 0.000787359 0)
(0.995027 0.00111601 0)
(0.997207 0.00141138 0)
(0.999582 0.00167633 0)
(1.00197 0.00191816 0)
(1.00415 0.00214797 0)
(1.00588 0.0023792 0)
(1.00694 0.00262561 0)
(1.00717 0.00289923 0)
(1.00655 0.0032088 0)
(0.9832 -0.0103832 0)
(0.983071 -0.00971597 0)
(0.982919 -0.00904748 0)
(0.982738 -0.00837653 0)
(0.982511 -0.0077031 0)
(0.982206 -0.00702544 0)
(0.981778 -0.00634071 0)
(0.98117 -0.00564524 0)
(0.980318 -0.00493485 0)
(0.979161 -0.00420556 0)
(0.977657 -0.00345476 0)
(0.975803 -0.0026824 0)
(0.973652 -0.00189204 0)
(0.971323 -0.00109115 0)
(0.969001 -0.000290512 0)
(0.966915 0.000497407 0)
(0.965302 0.00126083 0)
(0.964359 0.00199105 0)
(0.964201 0.00268419 0)
(0.97564 -0.0128813 0)
(0.975338 -0.0122572 0)
(0.975125 -0.0116123 0)
(0.975001 -0.0109501 0)
(0.974976 -0.0102708 0)
(0.975069 -0.00957598 0)
(0.97531 -0.00886835 0)
(0.975738 -0.00815178 0)
(0.976397 -0.00743106 0)
(0.97733 -0.0067113 0)
(0.978565 -0.00599686 0)
(0.9801 -0.00529004 0)
(0.981885 -0.00458967 0)
(0.983815 -0.00389038 0)
(0.985725 -0.00318287 0)
(0.987406 -0.0024556 0)
(0.988641 -0.00169771 0)
(0.989243 -0.000902321 0)
(0.989106 -6.91949e-05 0)
(0.967989 -0.0209583 0)
(0.967572 -0.0198862 0)
(0.967144 -0.0188014 0)
(0.96671 -0.0177027 0)
(0.966264 -0.0165906 0)
(0.965793 -0.0154646 0)
(0.965272 -0.0143233 0)
(0.964667 -0.0131656 0)
(0.963931 -0.0119904 0)
(0.96301 -0.0107978 0)
(0.961848 -0.00958954 0)
(0.960408 -0.00837118 0)
(0.958682 -0.00715322 0)
(0.956719 -0.00595187 0)
(0.954637 -0.00478825 0)
(0.95262 -0.00368547 0)
(0.950902 -0.00266377 0)
(0.949723 -0.0017345 0)
(0.949272 -0.000895093 0)
(0.957988 -0.0279559 0)
(0.957404 -0.0269918 0)
(0.956888 -0.0260075 0)
(0.956439 -0.0250084 0)
(0.956067 -0.0239958 0)
(0.955789 -0.0229718 0)
(0.955629 -0.0219396 0)
(0.955624 -0.0209031 0)
(0.955821 -0.0198663 0)
(0.956276 -0.0188325 0)
(0.957048 -0.017803 0)
(0.958187 -0.0167745 0)
(0.959715 -0.0157373 0)
(0.961603 -0.0146729 0)
(0.963744 -0.0135536 0)
(0.96595 -0.0123456 0)
(0.967953 -0.0110147 0)
(0.969449 -0.00953637 0)
(0.97016 -0.00790602 0)
(0.948533 -0.0365624 0)
(0.947822 -0.0350202 0)
(0.947129 -0.0334471 0)
(0.946463 -0.0318439 0)
(0.945827 -0.0302127 0)
(0.94522 -0.0285536 0)
(0.94463 -0.0268655 0)
(0.944031 -0.0251463 0)
(0.943382 -0.023393 0)
(0.942618 -0.021602 0)
(0.941655 -0.0197704 0)
(0.940397 -0.0178987 0)
(0.938749 -0.0159943 0)
(0.936651 -0.0140751 0)
(0.934113 -0.0121727 0)
(0.931256 -0.0103313 0)
(0.928333 -0.00860228 0)
(0.925719 -0.00703187 0)
(0.923843 -0.00564485 0)
(0.93672 -0.0465195 0)
(0.935697 -0.0450926 0)
(0.934747 -0.0436349 0)
(0.93387 -0.0421531 0)
(0.933068 -0.0406478 0)
(0.932349 -0.0391203 0)
(0.931724 -0.0375725 0)
(0.931211 -0.0360071 0)
(0.93084 -0.0344279 0)
(0.930657 -0.03284 0)
(0.930732 -0.031249 0)
(0.931155 -0.0296593 0)
(0.932033 -0.0280703 0)
(0.933461 -0.0264712 0)
(0.935482 -0.0248348 0)
(0.938034 -0.0231132 0)
(0.940895 -0.0212401 0)
(0.943666 -0.0191427 0)
(0.945814 -0.0167653 0)
(0.925172 -0.0569108 0)
(0.92399 -0.0547606 0)
(0.922844 -0.052544 0)
(0.921744 -0.050263 0)
(0.920695 -0.0479196 0)
(0.919699 -0.0455135 0)
(0.918752 -0.0430446 0)
(0.917845 -0.0405125 0)
(0.916954 -0.0379164 0)
(0.916037 -0.0352546 0)
(0.915022 -0.0325248 0)
(0.913803 -0.0297246 0)
(0.912232 -0.0268548 0)
(0.910137 -0.0239254 0)
(0.907356 -0.0209638 0)
(0.903804 -0.0180238 0)
(0.899578 -0.0151901 0)
(0.895043 -0.0125691 0)
(0.890868 -0.0102626 0)
(0.911575 -0.0688097 0)
(0.90984 -0.0666541 0)
(0.908197 -0.0644412 0)
(0.906644 -0.0621837 0)
(0.905182 -0.0598888 0)
(0.903818 -0.0575642 0)
(0.90256 -0.0552185 0)
(0.901418 -0.0528602 0)
(0.900409 -0.0504985 0)
(0.899562 -0.048143 0)
(0.898925 -0.0458044 0)
(0.898584 -0.0434949 0)
(0.89867 -0.0412263 0)
(0.899368 -0.0390062 0)
(0.900893 -0.0368284 0)
(0.903429 -0.0346582 0)
(0.907008 -0.032417 0)
(0.911355 -0.029976 0)
(0.915783 -0.0271762 0)
(0.89732 -0.0822894 0)
(0.895369 -0.0793173 0)
(0.8935 -0.0762434 0)
(0.891728 -0.0730763 0)
(0.890067 -0.0698194 0)
(0.888521 -0.0664733 0)
(0.887094 -0.0630378 0)
(0.885781 -0.0595125 0)
(0.884571 -0.0558964 0)
(0.883439 -0.0521881 0)
(0.882343 -0.0483852 0)
(0.881207 -0.0444839 0)
(0.879901 -0.0404786 0)
(0.878222 -0.0363644 0)
(0.875885 -0.0321449 0)
(0.872548 -0.0278479 0)
(0.867923 -0.0235493 0)
(0.861997 -0.0193921 0)
(0.855303 -0.0155805 0)
(0.881808 -0.0963005 0)
(0.879103 -0.0930834 0)
(0.876565 -0.0897437 0)
(0.87419 -0.0863062 0)
(0.871975 -0.0827893 0)
(0.869923 -0.0792131 0)
(0.868037 -0.075599 0)
(0.866319 -0.0719691 0)
(0.864777 -0.0683461 0)
(0.863422 -0.0647524 0)
(0.862276 -0.0612104 0)
(0.861385 -0.0577431 0)
(0.860838 -0.0543746 0)
(0.860801 -0.0511304 0)
(0.861545 -0.0480343 0)
(0.86345 -0.0450966 0)
(0.866928 -0.0422858 0)
(0.872189 -0.0394883 0)
(0.87887 -0.0364757 0)
(0.864398 -0.113471 0)
(0.861239 -0.109202 0)
(0.858256 -0.104768 0)
(0.855476 -0.100186 0)
(0.852921 -0.0954684 0)
(0.850605 -0.0906213 0)
(0.848537 -0.0856512 0)
(0.846717 -0.0805637 0)
(0.84514 -0.0753633 0)
(0.843788 -0.0700532 0)
(0.842634 -0.0646358 0)
(0.84163 -0.0591127 0)
(0.840692 -0.0534843 0)
(0.839676 -0.0477498 0)
(0.838326 -0.0419086 0)
(0.83622 -0.0359666 0)
(0.832756 -0.0299638 0)
(0.827301 -0.0240202 0)
(0.819617 -0.018381 0)
(0.845856 -0.130588 0)
(0.841591 -0.125679 0)
(0.837648 -0.120471 0)
(0.834027 -0.115021 0)
(0.830734 -0.10937 0)
(0.827775 -0.103561 0)
(0.825155 -0.0976437 0)
(0.822876 -0.0916715 0)
(0.820938 -0.0857011 0)
(0.819342 -0.0797931 0)
(0.818098 -0.0740118 0)
(0.817225 -0.0684237 0)
(0.816774 -0.0630962 0)
(0.816846 -0.0580963 0)
(0.817647 -0.053486 0)
(0.819542 -0.0493233 0)
(0.823127 -0.0456357 0)
(0.829109 -0.0423767 0)
(0.837925 -0.0393545 0)
(0.824266 -0.152275 0)
(0.818968 -0.145789 0)
(0.814018 -0.138968 0)
(0.809488 -0.131835 0)
(0.805423 -0.124431 0)
(0.801869 -0.116793 0)
(0.798853 -0.108963 0)
(0.796397 -0.100985 0)
(0.794511 -0.0929015 0)
(0.793194 -0.084754 0)
(0.79243 -0.0765747 0)
(0.792184 -0.0683876 0)
(0.79239 -0.0602065 0)
(0.792931 -0.0520333 0)
(0.793597 -0.043869 0)
(0.794014 -0.0357002 0)
(0.793483 -0.0275455 0)
(0.790984 -0.019507 0)
(0.785221 -0.0117969 0)
(0.801293 -0.174777 0)
(0.794059 -0.167181 0)
(0.787459 -0.158883 0)
(0.781494 -0.15001 0)
(0.776235 -0.14065 0)
(0.771715 -0.130896 0)
(0.767979 -0.120855 0)
(0.765046 -0.110634 0)
(0.762931 -0.100356 0)
(0.76163 -0.0901483 0)
(0.761127 -0.0801506 0)
(0.761405 -0.0705137 0)
(0.762456 -0.0613993 0)
(0.764303 -0.0529865 0)
(0.767052 -0.0454426 0)
(0.770943 -0.0389656 0)
(0.7766 -0.0336948 0)
(0.784892 -0.0296665 0)
(0.79708 -0.0268867 0)
(0.774572 -0.203698 0)
(0.765269 -0.193774 0)
(0.756568 -0.183026 0)
(0.748729 -0.171538 0)
(0.74184 -0.159364 0)
(0.736031 -0.146628 0)
(0.73137 -0.133449 0)
(0.727932 -0.119972 0)
(0.725751 -0.106345 0)
(0.72485 -0.092722 0)
(0.725229 -0.0792463 0)
(0.726861 -0.0660449 0)
(0.729687 -0.0532201 0)
(0.733603 -0.04082 0)
(0.738402 -0.0288936 0)
(0.743803 -0.0173624 0)
(0.748946 -0.00618741 0)
(0.75277 0.0045141 0)
(0.753249 0.0147256 0)
(0.746823 -0.235444 0)
(0.733807 -0.223866 0)
(0.722032 -0.210818 0)
(0.711424 -0.196388 0)
(0.702225 -0.18084 0)
(0.69455 -0.164349 0)
(0.688553 -0.147144 0)
(0.684299 -0.129452 0)
(0.681869 -0.111524 0)
(0.681276 -0.0936116 0)
(0.682513 -0.0759872 0)
(0.685534 -0.0589386 0)
(0.690263 -0.0427683 0)
(0.696607 -0.0278538 0)
(0.704555 -0.0145079 0)
(0.713964 -0.00327817 0)
(0.725623 0.00540925 0)
(0.740151 0.0113745 0)
(0.759171 0.0139176 0)
(0.714885 -0.276083 0)
(0.698137 -0.261546 0)
(0.682281 -0.244863 0)
(0.66807 -0.226493 0)
(0.65573 -0.206487 0)
(0.645553 -0.185136 0)
(0.63767 -0.162738 0)
(0.632276 -0.13962 0)
(0.629424 -0.116112 0)
(0.629185 -0.0925659 0)
(0.631565 -0.0693272 0)
(0.636549 -0.0467392 0)
(0.644072 -0.0251529 0)
(0.654054 -0.00477814 0)
(0.666146 0.0140183 0)
(0.680494 0.0314181 0)
(0.69551 0.0474455 0)
(0.710481 0.0619198 0)
(0.723406 0.0757425 0)
(0.683663 -0.322419 0)
(0.659953 -0.305293 0)
(0.638471 -0.285262 0)
(0.619272 -0.262249 0)
(0.602778 -0.236817 0)
(0.589219 -0.209473 0)
(0.578954 -0.180646 0)
(0.572001 -0.150801 0)
(0.568538 -0.120398 0)
(0.568588 -0.0898652 0)
(0.572188 -0.0596541 0)
(0.579325 -0.0302345 0)
(0.589962 -0.00205666 0)
(0.603911 0.0241541 0)
(0.621396 0.0480777 0)
(0.641144 0.0683334 0)
(0.665051 0.0841749 0)
(0.692399 0.0949357 0)
(0.72466 0.0974142 0)
(0.64746 -0.380324 0)