/*--------------------------------*- C++ -*----------------------------------*\
  =========                 |
  \\      /  F ield         | OpenFOAM: The Open Source CFD Toolbox
   \\    /   O peration     | Website:  https://openfoam.org
    \\  /    A nd           | Version:  10
     \\/     M anipulation  |
\*---------------------------------------------------------------------------*/
FoamFile
{
    format      ascii;
    class       volVectorField;
    location    "0";
    object      U;
}
// * * * * * * * * * * * * * * * * * * * * * * * * * * * * * * * * * * * * * //

dimensions      [0 1 -1 0 0 0 0];

internalField   nonuniform List<vector> 
18483
(
(1.00001 -0.000190495 0)
(1.00001 -0.000685106 0)
(1.00001 -0.00109985 0)
(1.00001 -0.00155368 0)
(1.00001 -0.00199695 0)
(1.00001 -0.0024353 0)
(1.00001 -0.00285069 0)
(1.00001 -0.00322933 0)
(1.00001 -0.00355914 0)
(1.00001 -0.00383255 0)
(1.00001 -0.00404996 0)
(1.00001 -0.00422181 0)
(1.00001 -0.00436888 0)
(1 -0.00454431 0)
(0.999988 -0.00480843 0)
(0.999948 -0.00519169 0)
(0.999812 -0.00564316 0)
(0.999305 -0.00604901 0)
(0.997774 -0.00628903 0)
(0.994608 -0.00624493 0)
(0.990571 -0.00591001 0)
(0.988028 -0.0054665 0)
(0.98846 -0.00504927 0)
(0.990911 -0.00466412 0)
(0.993659 -0.0043163 0)
(0.995798 -0.0040153 0)
(0.997206 -0.00376259 0)
(0.998053 -0.00355508 0)
(0.998531 -0.0033866 0)
(1.00058 -0.000534851 0)
(1.00061 -0.00190588 0)
(1.00068 -0.00304688 0)
(1.00076 -0.00429413 0)
(1.00084 -0.00549924 0)
(1.0009 -0.00668315 0)
(1.00093 -0.00779511 0)
(1.00093 -0.00879747 0)
(1.00088 -0.00965385 0)
(1.0008 -0.0103381 0)
(1.00068 -0.0108383 0)
(1.00057 -0.0111763 0)
(1.00049 -0.0113679 0)
(1.00051 -0.0113335 0)
(1.00062 -0.01096 0)
(1.00079 -0.0101791 0)
(1.00093 -0.00907703 0)
(1.00111 -0.00790113 0)
(1.00174 -0.00693416 0)
(1.00349 -0.00650736 0)
(1.00629 -0.00680875 0)
(1.00835 -0.00750118 0)
(1.00785 -0.00811104 0)
(1.00533 -0.00853006 0)
(1.00251 -0.00878845 0)
(1.00039 -0.00892163 0)
(0.999064 -0.00896959 0)
(0.998313 -0.00896145 0)
(0.997913 -0.00891869 0)
(1.00165 -0.000840813 0)
(1.00173 -0.0029695 0)
(1.00191 -0.00472867 0)
(1.00209 -0.0066516 0)
(1.00228 -0.0084926 0)
(1.00242 -0.0102961 0)
(1.00247 -0.0119842 0)
(1.00242 -0.0135016 0)
(1.00225 -0.0147892 0)
(1.00195 -0.0158091 0)
(1.00154 -0.0165245 0)
(1.00107 -0.0169168 0)
(1.00058 -0.016992 0)
(1.00008 -0.016768 0)
(0.999481 -0.0164209 0)
(0.998692 -0.0162334 0)
(0.997753 -0.0162518 0)
(0.99676 -0.0162783 0)
(0.995705 -0.016102 0)
(0.994357 -0.0155133 0)
(0.99249 -0.0143495 0)
(0.990642 -0.012848 0)
(0.989998 -0.0115142 0)
(0.990814 -0.0104651 0)
(0.992179 -0.00959113 0)
(0.993327 -0.00885169 0)
(0.994076 -0.00822167 0)
(0.994508 -0.00768427 0)
(0.994739 -0.00722796 0)
(1.00294 -0.001129 0)
(1.00309 -0.00395484 0)
(1.00338 -0.00627846 0)
(1.00369 -0.00881936 0)
(1.004 -0.0112356 0)
(1.00423 -0.0136063 0)
(1.00431 -0.0158295 0)
(1.0042 -0.017842 0)
(1.00387 -0.0195641 0)
(1.00331 -0.0209403 0)
(1.00257 -0.0219251 0)
(1.00166 -0.0224974 0)
(1.00065 -0.0227294 0)
(0.999545 -0.0227466 0)
(0.998408 -0.0226146 0)
(0.997334 -0.0221315 0)
(0.996377 -0.0210704 0)
(0.995534 -0.0195927 0)
(0.995 -0.0180107 0)
(0.99535 -0.0165662 0)
(0.996997 -0.015468 0)
(0.999035 -0.0147602 0)
(0.99963 -0.0141593 0)
(0.998173 -0.0135348 0)
(0.9958 -0.0129939 0)
(0.993663 -0.0125309 0)
(0.992103 -0.0121062 0)
(0.99103 -0.0117037 0)
(0.990288 -0.0113185 0)
(1.00431 -0.00140782 0)
(1.00453 -0.00489893 0)
(1.00494 -0.00776096 0)
(1.00539 -0.0108913 0)
(1.00584 -0.0138571 0)
(1.00618 -0.0167812 0)
(1.00631 -0.019541 0)
(1.00617 -0.0220711 0)
(1.00571 -0.024272 0)
(1.00492 -0.0260646 0)
(1.00383 -0.0273987 0)
(1.00248 -0.0282569 0)
(1.00096 -0.0286661 0)
(0.999379 -0.0286269 0)
(0.997837 -0.0281276 0)
(0.996331 -0.0273451 0)
(0.994708 -0.0266484 0)
(0.992874 -0.0262075 0)
(0.990766 -0.02581 0)
(0.988243 -0.0251537 0)
(0.985213 -0.0240565 0)
(0.982137 -0.0224831 0)
(0.980313 -0.0207751 0)
(0.980491 -0.0192411 0)
(0.981775 -0.0178068 0)
(0.982969 -0.0164699 0)
(0.983688 -0.0152878 0)
(0.98402 -0.0142718 0)
(0.984124 -0.0134144 0)
(1.00575 -0.00167318 0)
(1.00604 -0.00579283 0)
(1.00657 -0.00916655 0)
(1.00717 -0.0128593 0)
(1.00778 -0.0163561 0)
(1.00825 -0.0198292 0)
(1.00848 -0.0231407 0)
(1.00834 -0.0262291 0)
(1.00778 -0.0289821 0)
(1.00676 -0.0313065 0)
(1.00529 -0.0331354 0)
(1.00345 -0.0344269 0)
(1.00134 -0.0351571 0)
(0.999074 -0.0353341 0)
(0.996703 -0.0350547 0)
(0.994275 -0.034457 0)
(0.991883 -0.0334497 0)
(0.989601 -0.0318051 0)
(0.987572 -0.0296482 0)
(0.986342 -0.0274112 0)
(0.986603 -0.0254611 0)
(0.987936 -0.0240029 0)
(0.98846 -0.0228436 0)
(0.986844 -0.0216916 0)
(0.983953 -0.020652 0)
(0.981304 -0.0197768 0)
(0.979406 -0.0189785 0)
(0.978117 -0.0182231 0)
(0.977218 -0.0175069 0)
(1.00728 -0.00191462 0)
(1.00764 -0.00660346 0)
(1.00831 -0.0104473 0)
(1.00906 -0.0146625 0)
(1.00985 -0.0186635 0)
(1.01048 -0.0226748 0)
(1.01084 -0.0265495 0)
(1.01076 -0.030239 0)
(1.01015 -0.0336259 0)
(1.00896 -0.0366077 0)
(1.00719 -0.0390832 0)
(1.00492 -0.0409688 0)
(1.00228 -0.0422179 0)
(0.999394 -0.0428275 0)
(0.996374 -0.0427885 0)
(0.99333 -0.0421293 0)
(0.990285 -0.0410884 0)
(0.987107 -0.0400619 0)
(0.983727 -0.0392673 0)
(0.980065 -0.0385002 0)
(0.97579 -0.0373776 0)
(0.971017 -0.0356893 0)
(0.967331 -0.0336726 0)
(0.966341 -0.0317286 0)
(0.967297 -0.0298481 0)
(0.968353 -0.0279804 0)
(0.96882 -0.0262582 0)
(0.968852 -0.0247442 0)
(0.968668 -0.0234414 0)
(1.00886 -0.00212229 0)
(1.00931 -0.00729898 0)
(1.0101 -0.0115551 0)
(1.01103 -0.0162373 0)
(1.01202 -0.020702 0)
(1.01285 -0.025227 0)
(1.01338 -0.0296622 0)
(1.01343 -0.0339784 0)
(1.01287 -0.0380552 0)
(1.01161 -0.0417768 0)
(1.00965 -0.045009 0)
(1.00703 -0.0476283 0)
(1.00387 -0.0495477 0)
(1.0003 -0.0507266 0)
(0.996432 -0.0511599 0)
(0.992355 -0.0509355 0)
(0.988172 -0.0502073 0)
(0.984063 -0.0488705 0)
(0.980301 -0.0467276 0)
(0.977374 -0.0440318 0)
(0.97605 -0.0413595 0)
(0.976421 -0.0391713 0)
(0.976591 -0.0374145 0)
(0.974285 -0.0357217 0)
(0.97003 -0.0341421 0)
(0.966091 -0.0328222 0)
(0.963341 -0.0316327 0)
(0.961473 -0.0304973 0)
(0.960138 -0.0294177 0)
(1.01044 -0.00229154 0)
(1.01097 -0.00786451 0)
(1.01191 -0.0124661 0)
(1.01302 -0.0175495 0)
(1.01423 -0.0224273 0)
(1.01529 -0.0274278 0)
(1.01605 -0.0324022 0)
(1.0163 -0.0373442 0)
(1.01588 -0.0421361 0)
(1.01466 -0.0466603 0)
(1.01258 -0.0507716 0)
(1.00965 -0.0543261 0)
(1.00593 -0.0571962 0)
(1.00158 -0.0593028 0)
(0.996766 -0.0606094 0)
(0.991684 -0.0610555 0)
(0.986565 -0.0606694 0)
(0.981552 -0.0597568 0)
(0.976577 -0.0588341 0)
(0.971439 -0.0581054 0)
(0.965619 -0.0571687 0)
(0.958826 -0.0555176 0)
(0.95267 -0.0531798 0)
(0.949843 -0.0507075 0)
(0.950162 -0.0482717 0)
(0.950888 -0.04574 0)
(0.950789 -0.0433144 0)
(0.950204 -0.0411473 0)
(0.949469 -0.0392508 0)
(1.01198 -0.00242359 0)
(1.0126 -0.00830407 0)
(1.01367 -0.013184 0)
(1.01498 -0.0186016 0)
(1.01641 -0.0238365 0)
(1.01773 -0.0292635 0)
(1.01876 -0.0347382 0)
(1.01928 -0.0402803 0)
(1.01909 -0.0457862 0)
(1.01802 -0.0511537 0)
(1.01596 -0.0562383 0)
(1.01287 -0.060874 0)
(1.00883 -0.0648752 0)
(1.00397 -0.0680667 0)
(0.998488 -0.0703108 0)
(0.992587 -0.0715066 0)
(0.986434 -0.0716976 0)
(0.980253 -0.0710255 0)
(0.97439 -0.0694103 0)
(0.969352 -0.0667708 0)
(0.965874 -0.0635764 0)
(0.96449 -0.0606356 0)
(0.963734 -0.0583238 0)
(0.960418 -0.0562036 0)
(0.954179 -0.0540674 0)
(0.948177 -0.0522342 0)
(0.944058 -0.0506015 0)
(0.941234 -0.0490026 0)
(0.939141 -0.0474643 0)
(1.01344 -0.00252329 0)
(1.01414 -0.00863372 0)
(1.01535 -0.0137314 0)
(1.01685 -0.0194203 0)
(1.01852 -0.0249554 0)
(1.02013 -0.0307532 0)
(1.02147 -0.0366761 0)
(1.02231 -0.0427715 0)
(1.02244 -0.0489584 0)
(1.02165 -0.0551567 0)
(1.01979 -0.0612252 0)
(1.01678 -0.0669786 0)
(1.01264 -0.0721927 0)
(1.00741 -0.0766394 0)
(1.00122 -0.0801511 0)
(0.994254 -0.0826386 0)
(0.986781 -0.0840599 0)
(0.979219 -0.0845113 0)
(0.971866 -0.0843771 0)
(0.964592 -0.0841313 0)
(0.956721 -0.0837272 0)
(0.947505 -0.0824702 0)
(0.938151 -0.0799183 0)
(0.932315 -0.0767465 0)
(0.931197 -0.0736328 0)
(0.931268 -0.0703692 0)
(0.930173 -0.0670951 0)
(0.928511 -0.0641469 0)
(0.926846 -0.0615424 0)
(1.01479 -0.00259685 0)
(1.01558 -0.00887416 0)
(1.01693 -0.0141384 0)
(1.01863 -0.020043 0)
(1.02054 -0.0258239 0)
(1.02244 -0.0319351 0)
(1.02411 -0.0382463 0)
(1.02533 -0.0448326 0)
(1.02585 -0.0516372 0)
(1.02545 -0.0586074 0)
(1.02395 -0.0656215 0)
(1.02118 -0.0725069 0)
(1.01706 -0.0790434 0)
(1.01157 -0.0849832 0)
(1.00478 -0.0900821 0)
(0.996969 -0.0941072 0)
(0.988516 -0.096842 0)
(0.979864 -0.0981831 0)
(0.971413 -0.0980413 0)
(0.963577 -0.0962608 0)
(0.957003 -0.0930582 0)
(0.952697 -0.089416 0)
(0.950206 -0.0865 0)
(0.945853 -0.0841775 0)
(0.937445 -0.081622 0)
(0.928531 -0.0791796 0)
(0.922352 -0.077052 0)
(0.918127 -0.0748917 0)
(0.914878 -0.0727489 0)
(1.01604 -0.0026504 0)
(1.01692 -0.00904586 0)
(1.0184 -0.0144352 0)
(1.02029 -0.0205084 0)
(1.02245 -0.026486 0)
(1.02464 -0.0328551 0)
(1.02667 -0.0394927 0)
(1.02828 -0.0464975 0)
(1.02925 -0.0538382 0)
(1.02934 -0.0614981 0)
(1.0283 -0.0693945 0)
(1.02593 -0.0773914 0)
(1.02206 -0.0852804 0)
(1.01663 -0.0927783 0)
(1.00967 -0.0995494 0)
(1.00137 -0.105271 0)
(0.992032 -0.109708 0)
(0.982023 -0.112783 0)
(0.971729 -0.114655 0)
(0.961295 -0.115857 0)
(0.950411 -0.116766 0)
(0.938271 -0.116772 0)
(0.925159 -0.114772 0)
(0.914857 -0.110998 0)
(0.910793 -0.106978 0)
(0.909747 -0.102947 0)
(0.907325 -0.0986504 0)
(0.904041 -0.094697 0)
(0.901004 -0.0912159 0)
(1.01719 -0.00268927 0)
(1.01814 -0.00916654 0)
(1.01976 -0.0146486 0)
(1.02183 -0.0208519 0)
(1.02423 -0.0269834 0)
(1.02672 -0.03356 0)
(1.0291 -0.0404632 0)
(1.03113 -0.0478114 0)
(1.03258 -0.0555993 0)
(1.03321 -0.0638516 0)
(1.03275 -0.0725316 0)
(1.03095 -0.0815457 0)
(1.02761 -0.0907085 0)
(1.02255 -0.0997386 0)
(1.01568 -0.108291 0)
(1.00704 -0.116017 0)
(0.996887 -0.122581 0)
(0.985708 -0.127645 0)
(0.974079 -0.13081 0)
(0.962582 -0.131589 0)
(0.951938 -0.129764 0)
(0.943288 -0.12616 0)
(0.937471 -0.12266 0)
(0.931633 -0.120332 0)
(0.9212 -0.117892 0)
(0.908364 -0.114856 0)
(0.898829 -0.112124 0)
(0.892503 -0.10932 0)
(0.887512 -0.106339 0)
(1.01823 -0.00271763 0)
(1.01926 -0.00925032 0)
(1.021 -0.0148004 0)
(1.02325 -0.021103 0)
(1.02588 -0.0273523 0)
(1.02866 -0.0340914 0)
(1.03138 -0.0412045 0)
(1.03383 -0.0488245 0)
(1.03578 -0.0569711 0)
(1.03698 -0.0657088 0)
(1.03718 -0.0750471 0)
(1.03609 -0.0849449 0)
(1.03343 -0.0952732 0)
(1.02894 -0.105803 0)
(1.02239 -0.116208 0)
(1.01374 -0.126073 0)
(1.00321 -0.134904 0)
(0.991197 -0.142229 0)
(0.978109 -0.147771 0)
(0.964202 -0.151818 0)
(0.949474 -0.155191 0)
(0.933553 -0.15788 0)
(0.916104 -0.158213 0)
(0.899729 -0.154926 0)
(0.890003 -0.149893 0)
(0.886503 -0.144984 0)
(0.88247 -0.139564 0)
(0.876781 -0.134167 0)
(0.871651 -0.129451 0)
(1.01918 -0.00273864 0)
(1.02027 -0.00930784 0)
(1.02214 -0.0149074 0)
(1.02455 -0.021285 0)
(1.0274 -0.027622 0)
(1.03045 -0.0344859 0)
(1.0335 -0.0417599 0)
(1.03635 -0.0495879 0)
(1.03879 -0.0580103 0)
(1.04058 -0.0671268 0)
(1.04147 -0.0769935 0)
(1.04116 -0.0876343 0)
(1.03933 -0.0989961 0)
(1.03563 -0.110916 0)
(1.02976 -0.123089 0)
(1.02157 -0.135073 0)
(1.01108 -0.146332 0)
(0.99851 -0.156342 0)
(0.984275 -0.164573 0)
(0.969019 -0.170304 0)
(0.953683 -0.172573 0)
(0.939523 -0.171102 0)
(0.928225 -0.167713 0)
(0.919262 -0.165451 0)
(0.906885 -0.163998 0)
(0.889288 -0.160945 0)
(0.873983 -0.157392 0)
(0.86405 -0.153887 0)
(0.856302 -0.149746 0)
(1.02004 -0.00275451 0)
(1.0212 -0.00934682 0)
(1.02318 -0.0149818 0)
(1.02574 -0.0214155 0)
(1.0288 -0.027816 0)
(1.0321 -0.0347738 0)
(1.03546 -0.0421677 0)
(1.03868 -0.0501486 0)
(1.04159 -0.0587725 0)
(1.04396 -0.068169 0)
(1.04556 -0.0784391 0)
(1.04609 -0.0896732 0)
(1.04521 -0.101896 0)
(1.04253 -0.115017 0)
(1.03767 -0.128799 0)
(1.03028 -0.142851 0)
(1.02018 -0.156634 0)
(1.00749 -0.169517 0)
(0.992575 -0.180823 0)
(0.975772 -0.190074 0)
(0.957171 -0.197739 0)
(0.936686 -0.204763 0)
(0.914147 -0.209998 0)
(0.890489 -0.210081 0)
(0.871532 -0.204998 0)
(0.862094 -0.198968 0)
(0.855673 -0.192659 0)
(0.846522 -0.185358 0)
(0.837789 -0.178745 0)
(1.02083 -0.00276677 0)
(1.02204 -0.00937272 0)
(1.02413 -0.0150329 0)
(1.02683 -0.0215079 0)
(1.03008 -0.0279529 0)
(1.03361 -0.0349798 0)
(1.03725 -0.0424598 0)
(1.04083 -0.050547 0)
(1.04418 -0.0593089 0)
(1.04712 -0.0688981 0)
(1.04942 -0.0794547 0)
(1.05081 -0.0911303 0)
(1.05096 -0.104026 0)
(1.04943 -0.118146 0)
(1.04575 -0.133357 0)
(1.03943 -0.149349 0)
(1.03016 -0.165599 0)
(1.0179 -0.181446 0)
(1.00284 -0.196208 0)
(0.985214 -0.209038 0)
(0.965616 -0.218601 0)
(0.945529 -0.223201 0)
(0.927034 -0.22272 0)
(0.911908 -0.220886 0)
(0.896492 -0.221245 0)
(0.874058 -0.220301 0)
(0.84965 -0.216207 0)
(0.832636 -0.211855 0)
(0.820306 -0.206423 0)
(1.02155 -0.00277644 0)
(1.02281 -0.00938929 0)
(1.02499 -0.015067 0)
(1.02783 -0.0215716 0)
(1.03125 -0.0280468 0)
(1.035 -0.0351234 0)
(1.0389 -0.0426617 0)
(1.04281 -0.0508175 0)
(1.04657 -0.0596653 0)
(1.05003 -0.0693738 0)
(1.053 -0.0801148 0)
(1.05523 -0.0920935 0)
(1.05641 -0.10549 0)
(1.05609 -0.120407 0)
(1.05372 -0.13682 0)
(1.04878 -0.154519 0)
(1.04079 -0.173054 0)
(1.02952 -0.191812 0)
(1.01497 -0.210104 0)
(0.99714 -0.227006 0)
(0.975929 -0.241795 0)
(0.951289 -0.255236 0)
(0.923361 -0.268052 0)
(0.892224 -0.276682 0)
(0.861066 -0.275904 0)
(0.839325 -0.269109 0)
(0.827408 -0.262237 0)
(0.813797 -0.25351 0)
(0.798656 -0.244046 0)
(1.0222 -0.00278415 0)
(1.02351 -0.00939913 0)
(1.02579 -0.0150888 0)
(1.02874 -0.0216141 0)
(1.03233 -0.0281082 0)
(1.03627 -0.0352197 0)
(1.04041 -0.0427943 0)
(1.04462 -0.0509896 0)
(1.04875 -0.0598827 0)
(1.05269 -0.0696517 0)
(1.05628 -0.0804927 0)
(1.05931 -0.0926563 0)
(1.0615 -0.106395 0)
(1.06241 -0.121904 0)
(1.06149 -0.139263 0)
(1.05816 -0.158385 0)
(1.05179 -0.178954 0)
(1.04197 -0.200457 0)
(1.02854 -0.222277 0)
(1.01122 -0.243552 0)
(0.98979 -0.262906 0)
(0.965089 -0.27809 0)
(0.939355 -0.286296 0)
(0.915126 -0.288133 0)
(0.893454 -0.290645 0)
(0.866784 -0.295229 0)
(0.831143 -0.293921 0)
(0.800282 -0.288686 0)
(0.77949 -0.282484 0)
(1.0228 -0.00279036 0)
(1.02415 -0.00940407 0)
(1.02651 -0.0151017 0)
(1.02957 -0.0216405 0)
(1.03331 -0.0281452 0)
(1.03742 -0.0352802 0)
(1.04178 -0.0428744 0)
(1.04626 -0.0510875 0)
(1.05073 -0.0599952 0)
(1.0551 -0.0697788 0)
(1.05926 -0.080652 0)
(1.06304 -0.0929009 0)
(1.06621 -0.106838 0)
(1.06836 -0.122743 0)
(1.06895 -0.140801 0)
(1.06731 -0.161059 0)
(1.06278 -0.183358 0)
(1.05483 -0.207319 0)
(1.04311 -0.232428 0)
(1.02716 -0.257897 0)
(1.00627 -0.282449 0)
(0.979959 -0.305364 0)
(0.948121 -0.328114 0)
(0.910599 -0.350336 0)
(0.867564 -0.363362 0)
(0.82672 -0.361141 0)
(0.800381 -0.353714 0)
(0.780624 -0.345793 0)
(0.755839 -0.333425 0)
(1.02334 -0.00279539 0)
(1.02473 -0.00940544 0)
(1.02716 -0.0151081 0)
(1.03031 -0.021655 0)
(1.03419 -0.0281643 0)
(1.03846 -0.035314 0)
(1.04302 -0.0429153 0)
(1.04774 -0.0511307 0)
(1.05251 -0.06003 0)
(1.05727 -0.0697931 0)
(1.06196 -0.0806451 0)
(1.06645 -0.0928986 0)
(1.07054 -0.106914 0)
(1.07388 -0.123048 0)
(1.07593 -0.141587 0)
(1.07602 -0.162701 0)
(1.07348 -0.186388 0)
(1.06772 -0.212435 0)
(1.05823 -0.240467 0)
(1.04431 -0.269922 0)
(1.02496 -0.299798 0)
(0.999694 -0.328277 0)
(0.969791 -0.351854 0)
(0.937415 -0.365874 0)
(0.905151 -0.372745 0)
(0.872444 -0.38448 0)
(0.827822 -0.395058 0)
(0.775195 -0.392334 0)
(0.736042 -0.385825 0)
(1.02382 -0.00279947 0)
(1.02525 -0.00940426 0)
(1.02775 -0.01511 0)
(1.03098 -0.0216608 0)
(1.03499 -0.0281702 0)
(1.03939 -0.0353282 0)
(1.04414 -0.0429275 0)
(1.04907 -0.0511339 0)
(1.05411 -0.0600082 0)
(1.05923 -0.0697252 0)
(1.06439 -0.0805163 0)
(1.06951 -0.092713 0)
(1.07446 -0.106713 0)
(1.0789 -0.12294 0)
(1.08236 -0.141768 0)
(1.08417 -0.163473 0)
(1.08368 -0.188199 0)
(1.08031 -0.215921 0)
(1.07343 -0.246438 0)
(1.06213 -0.279372 0)
(1.04535 -0.31398 0)
(1.02193 -0.348884 0)
(0.990634 -0.383756 0)
(0.950618 -0.421441 0)
(0.900663 -0.459417 0)
(0.840418 -0.479092 0)
(0.785242 -0.475314 0)
(0.749339 -0.46927 0)
(0.713747 -0.458565 0)
(1.02425 -0.0028028 0)
(1.02571 -0.00940131 0)
(1.02827 -0.0151086 0)
(1.03158 -0.0216603 0)
(1.03571 -0.0281668 0)
(1.04023 -0.0353282 0)
(1.04514 -0.0429192 0)
(1.05026 -0.051109 0)
(1.05554 -0.0599467 0)
(1.06097 -0.0696007 0)
(1.06655 -0.0803036 0)
(1.07225 -0.0923994 0)
(1.07796 -0.106314 0)
(1.08343 -0.122523 0)
(1.08822 -0.141476 0)
(1.09171 -0.163542 0)
(1.09327 -0.188993 0)
(1.09234 -0.217982 0)
(1.08828 -0.250498 0)
(1.08005 -0.286333 0)
(1.06646 -0.325168 0)
(1.04625 -0.366342 0)
(1.01832 -0.407726 0)
(0.983448 -0.443881 0)
(0.942982 -0.467272 0)
(0.899514 -0.484938 0)
(0.848876 -0.515353 0)
(0.775163 -0.533628 0)
(0.697886 -0.527265 0)
(1.02464 -0.0028055 0)
(1.02613 -0.00939717 0)
(1.02874 -0.015105 0)
(1.03212 -0.0216553 0)
(1.03634 -0.028157 0)
(1.04098 -0.0353182 0)
(1.04603 -0.0428966 0)
(1.05132 -0.0510651 0)
(1.05682 -0.059859 0)
(1.06252 -0.0694398 0)
(1.06847 -0.080037 0)
(1.07467 -0.0920015 0)
(1.08108 -0.105779 0)
(1.08749 -0.121885 0)
(1.09352 -0.14083 0)
(1.0986 -0.163068 0)
(1.10211 -0.188975 0)
(1.10358 -0.218846 0)
(1.10244 -0.252865 0)
(1.09757 -0.291016 0)
(1.08766 -0.333216 0)
(1.07178 -0.379335 0)
(1.04795 -0.428354 0)
(1.01233 -0.48053 0)
(0.963558 -0.542471 0)
(0.898755 -0.60924 0)
(0.811446 -0.64121 0)
(0.728682 -0.636462 0)
(0.671572 -0.633226 0)
(1.02499 -0.00280769 0)
(1.0265 -0.00939231 0)
(1.02916 -0.0150999 0)
(1.0326 -0.0216473 0)
(1.03691 -0.028143 0)
(1.04164 -0.0353015 0)
(1.04682 -0.0428649 0)
(1.05226 -0.0510093 0)
(1.05794 -0.0597558 0)
(1.06388 -0.0692583 0)
(1.07015 -0.0797399 0)
(1.07681 -0.0915537 0)
(1.08384 -0.105159 0)
(1.0911 -0.1211 0)
(1.09826 -0.139938 0)
(1.1048 -0.162199 0)
(1.11017 -0.188345 0)
(1.11394 -0.218772 0)
(1.11564 -0.253818 0)
(1.11427 -0.293695 0)
(1.10839 -0.338487 0)
(1.09708 -0.388588 0)
(1.07906 -0.44461 0)
(1.05122 -0.504581 0)
(1.01235 -0.559811 0)
(0.962807 -0.59809 0)
(0.904937 -0.640335 0)
(0.822043 -0.712458 0)
(0.69053 -0.736075 0)
(1.02529 -0.00280944 0)
(1.02683 -0.00938707 0)
(1.02953 -0.0150938 0)
(1.03302 -0.0216375 0)
(1.03742 -0.0281265 0)
(1.04223 -0.0352805 0)
(1.04752 -0.0428278 0)
(1.05309 -0.0509471 0)
(1.05893 -0.0596448 0)
(1.06509 -0.0690674 0)
(1.07164 -0.0794294 0)
(1.07869 -0.0910822 0)
(1.08627 -0.104493 0)
(1.09428 -0.120229 0)
(1.10246 -0.138891 0)
(1.11033 -0.161058 0)
(1.11742 -0.187266 0)
(1.12335 -0.217989 0)
(1.12772 -0.253651 0)
(1.12975 -0.294674 0)
(1.12813 -0.341397 0)
(1.1217 -0.394271 0)
(1.1102 -0.454601 0)
(1.09054 -0.52296 0)
(1.05286 -0.599644 0)
(0.996703 -0.700648 0)
(0.92209 -0.828977 0)
(0.785384 -0.896591 0)
(0.618301 -0.886428 0)
(1.02556 -0.00281082 0)
(1.02712 -0.00938174 0)
(1.02986 -0.0150872 0)
(1.0334 -0.0216266 0)
(1.03786 -0.0281088 0)
(1.04275 -0.0352573 0)
(1.04814 -0.0427881 0)
(1.05382 -0.0508822 0)
(1.05981 -0.0595318 0)
(1.06614 -0.0688758 0)
(1.07294 -0.0791187 0)
(1.08033 -0.090608 0)
(1.08839 -0.103815 0)
(1.09707 -0.119323 0)
(1.10615 -0.137761 0)
(1.11523 -0.159753 0)
(1.12387 -0.185889 0)
(1.1318 -0.216709 0)
(1.13865 -0.25268 0)
(1.1438 -0.294323 0)
(1.1464 -0.342302 0)
(1.14518 -0.397123 0)
(1.13957 -0.460144 0)
(1.12915 -0.535407 0)
(1.10863 -0.623387 0)
(1.07234 -0.706983 0)
(1.01563 -0.768416 0)
(0.940688 -0.878409 0)
(0.773991 -1.05313 0)
(1.0258 -0.00281189 0)
(1.02738 -0.00937648 0)
(1.03015 -0.0150805 0)
(1.03373 -0.0216153 0)
(1.03825 -0.0280906 0)
(1.04321 -0.0352331 0)
(1.04869 -0.0427478 0)
(1.05446 -0.0508175 0)
(1.06058 -0.0594208 0)
(1.06707 -0.0686895 0)
(1.07407 -0.0788171 0)
(1.08176 -0.0901458 0)
(1.09023 -0.103148 0)
(1.0995 -0.118416 0)
(1.10938 -0.136602 0)
(1.11952 -0.158364 0)
(1.12956 -0.184331 0)
(1.1393 -0.215094 0)
(1.14843 -0.251151 0)
(1.15637 -0.293015 0)
(1.16281 -0.341573 0)
(1.16688 -0.397676 0)
(1.16725 -0.462188 0)
(1.16579 -0.539435 0)
(1.16096 -0.633722 0)
(1.13123 -0.73875 0)
(1.076 -0.893621 0)
(1.01376 -1.17696 0)
(0.727067 -1.30387 0)
(0.998783 -0.00324822 0)
(0.998904 -0.00312226 0)
(0.998922 -0.00299606 0)
(0.998843 -0.00286838 0)
(0.998662 -0.00273791 0)
(0.998368 -0.00260302 0)
(0.997944 -0.00246208 0)
(0.997365 -0.00231382 0)
(0.996607 -0.00215755 0)
(0.995649 -0.0019936 0)
(0.994477 -0.00182373 0)
(0.993096 -0.00165148 0)
(0.991532 -0.00148235 0)
(0.989836 -0.00132358 0)
(0.98809 -0.0011836 0)
(0.986404 -0.00107099 0)
(0.984904 -0.00099309 0)
(0.98372 -0.000954471 0)
(0.982971 -0.000955627 0)
(0.997708 -0.00885947 0)
(0.997605 -0.00879477 0)
(0.997569 -0.00872867 0)
(0.99759 -0.00866447 0)
(0.997664 -0.0086035 0)
(0.997801 -0.00854715 0)
(0.998022 -0.00849669 0)
(0.998361 -0.00845284 0)
(0.99886 -0.00841543 0)
(0.999569 -0.00838281 0)
(1.00054 -0.00835114 0)
(1.00182 -0.00831363 0)
(1.00343 -0.00826006 0)
(1.00535 -0.0081767 0)
(1.00752 -0.00804701 0)
(1.00982 -0.00785339 0)
(1.01209 -0.00757973 0)
(1.01413 -0.00721487 0)
(1.0157 -0.00675582 0)
(0.994852 -0.00683499 0)
(0.994899 -0.00646129 0)
(0.994894 -0.00607234 0)
(0.994837 -0.00566747 0)
(0.994722 -0.00524737 0)
(0.994535 -0.00481227 0)
(0.994253 -0.00436252 0)
(0.993842 -0.00389889 0)
(0.993259 -0.00342282 0)
(0.992447 -0.00293679 0)
(0.991347 -0.00244503 0)
(0.989899 -0.00195422 0)
(0.988056 -0.0014743 0)
(0.9858 -0.00101884 0)
(0.983163 -0.00060491 0)
(0.980243 -0.000251811 0)
(0.977214 2.12216e-05 0)
(0.974324 0.000198445 0)
(0.971866 0.000271466 0)
(0.989752 -0.0109556 0)
(0.989323 -0.0106031 0)
(0.98895 -0.010246 0)
(0.988628 -0.00988699 0)
(0.988358 -0.00952664 0)
(0.988155 -0.0091668 0)
(0.988042 -0.00881038 0)
(0.988059 -0.00846111 0)
(0.988261 -0.00812338 0)
(0.988719 -0.00780178 0)
(0.989514 -0.00750025 0)
(0.990735 -0.00722084 0)
(0.992458 -0.00696215 0)
(0.994733 -0.00671776 0)
(0.99755 -0.00647493 0)
(1.00082 -0.00621436 0)
(1.00437 -0.00591152 0)
(1.0079 -0.00553975 0)
(1.01107 -0.0050751 0)
(0.98411 -0.0126878 0)
(0.984037 -0.0120146 0)
(0.983923 -0.011337 0)
(0.983783 -0.0106547 0)
(0.983629 -0.00996911 0)
(0.983463 -0.00928014 0)
(0.983284 -0.00858697 0)
(0.983077 -0.00788795 0)
(0.982811 -0.00718027 0)
(0.982437 -0.00645988 0)
(0.981881 -0.00572185 0)
(0.981044 -0.00496108 0)
(0.979813 -0.00417372 0)
(0.978073 -0.00335902 0)
(0.97574 -0.00252134 0)
(0.972792 -0.00167159 0)
(0.969312 -0.000827452 0)
(0.965513 -1.15517e-05 0)
(0.961738 0.000752485 0)
(0.976558 -0.0168366 0)
(0.976017 -0.0161842 0)
(0.975534 -0.0155172 0)
(0.975099 -0.0148379 0)
(0.974711 -0.0141446 0)
(0.974372 -0.0134361 0)
(0.974095 -0.0127119 0)
(0.973897 -0.0119714 0)
(0.97381 -0.0112152 0)
(0.973878 -0.0104446 0)
(0.974165 -0.00966225 0)
(0.974752 -0.00887207 0)
(0.975739 -0.00807846 0)
(0.977226 -0.00728522 0)
(0.979292 -0.00649373 0)
(0.981959 -0.00570114 0)
(0.985155 -0.00489916 0)
(0.98868 -0.00407436 0)
(0.992203 -0.00321059 0)
(0.968397 -0.0223201 0)
(0.968084 -0.0212694 0)
(0.96773 -0.0202029 0)
(0.967352 -0.0191214 0)
(0.96696 -0.0180279 0)
(0.966558 -0.0169237 0)
(0.966149 -0.0158101 0)
(0.965727 -0.0146879 0)
(0.965279 -0.0135578 0)
(0.964775 -0.0124196 0)
(0.964168 -0.0112721 0)
(0.963384 -0.0101131 0)
(0.962326 -0.00893949 0)
(0.960872 -0.00774818 0)
(0.958904 -0.00653709 0)
(0.956335 -0.00530696 0)
(0.953162 -0.00406245 0)
(0.949511 -0.00281219 0)
(0.945668 -0.00156701 0)
(0.959129 -0.0284045 0)
(0.958277 -0.0274145 0)
(0.957493 -0.0263969 0)
(0.956764 -0.0253554 0)
(0.956086 -0.0242885 0)
(0.955459 -0.0231952 0)
(0.954889 -0.0220746 0)
(0.954388 -0.0209256 0)
(0.953977 -0.0197473 0)
(0.953684 -0.0185385 0)
(0.953552 -0.0172985 0)
(0.953642 -0.016027 0)
(0.954033 -0.014724 0)
(0.954817 -0.01339 0)
(0.956086 -0.0120248 0)
(0.957902 -0.0106268 0)
(0.960252 -0.00919238 0)
(0.963003 -0.00771645 0)
(0.965877 -0.00619453 0)
(0.948726 -0.037596 0)
(0.947982 -0.0360293 0)
(0.947213 -0.0344263 0)
(0.946432 -0.0327894 0)
(0.94565 -0.0311222 0)
(0.944871 -0.029427 0)
(0.944094 -0.0277055 0)
(0.943315 -0.0259593 0)
(0.942523 -0.0241899 0)
(0.941693 -0.0223985 0)
(0.940789 -0.0205863 0)
(0.939751 -0.0187542 0)
(0.938498 -0.0169039 0)
(0.936925 -0.0150378 0)
(0.934916 -0.0131604 0)
(0.932375 -0.0112792 0)
(0.929277 -0.00940512 0)
(0.925722 -0.00755099 0)
(0.921982 -0.00572806 0)
(0.937509 -0.0460085 0)
(0.936097 -0.0445736 0)
(0.934774 -0.0430856 0)
(0.933523 -0.0415505 0)
(0.932334 -0.0399686 0)
(0.931206 -0.0383413 0)
(0.930139 -0.0366701 0)
(0.929142 -0.0349566 0)
(0.928225 -0.0332028 0)
(0.927413 -0.0314104 0)
(0.92674 -0.0295815 0)
(0.926258 -0.027718 0)
(0.926043 -0.0258215 0)
(0.92619 -0.0238926 0)
(0.926804 -0.0219295 0)
(0.92797 -0.0199261 0)
(0.929707 -0.0178712 0)
(0.931908 -0.0157494 0)
(0.934297 -0.0135461 0)
(0.925305 -0.0592453 0)
(0.923839 -0.0570548 0)
(0.922375 -0.0548005 0)
(0.920932 -0.0524868 0)
(0.91952 -0.0501182 0)
(0.918147 -0.0476973 0)
(0.916816 -0.0452266 0)
(0.915524 -0.0427088 0)
(0.914266 -0.0401467 0)
(0.913026 -0.0375432 0)
(0.911775 -0.0349012 0)
(0.910464 -0.0322235 0)
(0.90902 -0.0295135 0)
(0.907338 -0.0267754 0)
(0.90529 -0.0240161 0)
(0.90275 -0.0212475 0)
(0.899645 -0.018488 0)
(0.896039 -0.0157624 0)
(0.892199 -0.0130961 0)
(0.912296 -0.0706995 0)
(0.910037 -0.0686535 0)
(0.907903 -0.0665074 0)
(0.905876 -0.0642725 0)
(0.903948 -0.0619548 0)
(0.902117 -0.0595616 0)
(0.900383 -0.057101 0)
(0.898751 -0.0545811 0)
(0.897231 -0.0520095 0)
(0.895836 -0.0493935 0)
(0.894592 -0.0467392 0)
(0.893539 -0.0440522 0)
(0.892738 -0.0413363 0)
(0.892279 -0.0385934 0)
(0.892274 -0.0358212 0)
(0.892839 -0.0330103 0)
(0.894038 -0.030141 0)
(0.895804 -0.0271817 0)
(0.897855 -0.0240956 0)
(0.898281 -0.0881081 0)
(0.89574 -0.0851296 0)
(0.893251 -0.0820501 0)
(0.890841 -0.0788774 0)
(0.888526 -0.0756158 0)
(0.88632 -0.0722666 0)
(0.884227 -0.0688311 0)
(0.882249 -0.0653109 0)
(0.880381 -0.061708 0)
(0.87861 -0.0580249 0)
(0.876909 -0.0542649 0)
(0.875237 -0.0504323 0)
(0.873524 -0.0465325 0)
(0.871665 -0.0425733 0)
(0.869515 -0.0385672 0)
(0.866905 -0.0345353 0)
(0.863692 -0.0305122 0)
(0.859862 -0.026549 0)
(0.85566 -0.0227066 0)
(0.883504 -0.103439 0)
(0.879997 -0.100487 0)
(0.87668 -0.0973369 0)
(0.87354 -0.094015 0)
(0.870568 -0.0905378 0)
(0.867765 -0.086926 0)
(0.865131 -0.0832011 0)
(0.862671 -0.0793851 0)
(0.86039 -0.0754999 0)
(0.858299 -0.0715666 0)
(0.856414 -0.0676059 0)
(0.854766 -0.0636369 0)
(0.853404 -0.0596764 0)
(0.852414 -0.0557382 0)
(0.851916 -0.0518292 0)
(0.852068 -0.0479443 0)
(0.853008 -0.0440573 0)
(0.854757 -0.0401131 0)
(0.857052 -0.0360277 0)
(0.867162 -0.125168 0)
(0.863001 -0.121013 0)
(0.858986 -0.116687 0)
(0.855152 -0.112196 0)
(0.851529 -0.10755 0)
(0.848142 -0.102754 0)
(0.845002 -0.0978149 0)
(0.842117 -0.0927409 0)
(0.839488 -0.0875415 0)
(0.837106 -0.0822269 0)
(0.83495 -0.0768074 0)
(0.832984 -0.0712933 0)
(0.831141 -0.0656952 0)
(0.829315 -0.0600243 0)
(0.827338 -0.0542963 0)
(0.824979 -0.0485368 0)
(0.821967 -0.0427944 0)
(0.818111 -0.0371535 0)
(0.81352 -0.0317397 0)
(0.849948 -0.145531 0)
(0.844451 -0.14115 0)
(0.839262 -0.13635 0)
(0.834394 -0.131215 0)
(0.829858 -0.125777 0)
(0.825657 -0.120087 0)
(0.821807 -0.114192 0)
(0.818316 -0.108143 0)
(0.815193 -0.10199 0)
(0.812443 -0.0957852 0)
(0.810071 -0.0895804 0)
(0.808091 -0.0834279 0)
(0.80653 -0.0773793 0)
(0.805446 -0.0714828 0)
(0.804952 -0.06578 0)
(0.805229 -0.0602977 0)
(0.806522 -0.0550294 0)
(0.809027 -0.0499148 0)
(0.812646 -0.0448092 0)
(0.830451 -0.172706 0)
(0.823618 -0.166632 0)
(0.817121 -0.160222 0)
(0.811018 -0.15344 0)
(0.805355 -0.146325 0)
(0.800195 -0.138905 0)
(0.795565 -0.131212 0)
(0.791491 -0.123291 0)
(0.787983 -0.115189 0)
(0.785044 -0.106951 0)
(0.782657 -0.0986231 0)
(0.78079 -0.0902452 0)
(0.779376 -0.0818519 0)
(0.778307 -0.0734713 0)
(0.777397 -0.0651282 0)
(0.776352 -0.0568481 0)
(0.774742 -0.0486859 0)
(0.772068 -0.0407463 0)
(0.768003 -0.0332324 0)
(0.809784 -0.200135 0)
(0.800777 -0.193475 0)
(0.792327 -0.185909 0)
(0.784459 -0.177641 0)
(0.777282 -0.168759 0)
(0.77081 -0.15935 0)
(0.765109 -0.149528 0)
(0.760208 -0.139395 0)
(0.756134 -0.129064 0)
(0.75289 -0.118649 0)
(0.750474 -0.108276 0)
(0.74887 -0.0980686 0)
(0.748066 -0.0881611 0)
(0.748064 -0.0786881 0)
(0.748917 -0.069782 0)
(0.750775 -0.0615717 0)
(0.753945 -0.0541337 0)
(0.758837 -0.0474863 0)
(0.765837 -0.0414928 0)
(0.78623 -0.235539 0)
(0.77471 -0.226473 0)
(0.763737 -0.216574 0)
(0.753632 -0.205831 0)
(0.744395 -0.194253 0)
(0.736221 -0.181987 0)
(0.729163 -0.169121 0)
(0.723306 -0.155806 0)
(0.718682 -0.142185 0)
(0.715322 -0.128411 0)
(0.713214 -0.114633 0)
(0.712329 -0.100989 0)
(0.712595 -0.087603 0)
(0.713891 -0.0745716 0)
(0.716011 -0.0619703 0)
(0.71861 -0.0498248 0)
(0.721087 -0.0382033 0)
(0.722647 -0.0271796 0)
(0.722024 -0.0169423 0)
(0.761766 -0.273509 0)
(0.746161 -0.263302 0)
(0.731824 -0.251403 0)
(0.718444 -0.237871 0)
(0.70649 -0.223106 0)
(0.695989 -0.207201 0)
(0.687129 -0.190424 0)
(0.679976 -0.172996 0)
(0.674624 -0.155158 0)
(0.67108 -0.13716 0)
(0.669351 -0.119262 0)
(0.669392 -0.101729 0)
(0.671139 -0.0848396 0)
(0.674503 -0.0688909 0)
(0.679419 -0.0541796 0)
(0.685883 -0.0410754 0)
(0.694204 -0.0298181 0)
(0.704701 -0.0206861 0)
(0.718646 -0.0138549 0)
(0.733596 -0.321298 0)
(0.713963 -0.308266 0)
(0.694793 -0.292752 0)
(0.677479 -0.275553 0)
(0.661891 -0.25641 0)
(0.648446 -0.235775 0)
(0.637267 -0.213915 0)
(0.62855 -0.191148 0)
(0.622325 -0.167822 0)
(0.61868 -0.144274 0)
(0.617595 -0.120837 0)
(0.619044 -0.0978451 0)
(0.622943 -0.0756158 0)
(0.629153 -0.0544289 0)
(0.637435 -0.0345556 0)
(0.647454 -0.0160412 0)
(0.658229 0.000891287 0)
(0.669124 0.0162788 0)
(0.677388 0.0302495 0)
(0.706574 -0.375192 0)
(0.678842 -0.359451 0)
(0.653982 -0.341042 0)
(0.63103 -0.319071 0)
(0.610846 -0.294609 0)
(0.593623 -0.268048 0)
(0.579668 -0.2398 0)
(0.568987 -0.210422 0)
(0.561786 -0.180327 0)
(0.558006 -0.149961 0)
(0.557692 -0.119764 0)
(0.560795 -0.0901708 0)
(0.567251 -0.0616492 0)
(0.576941 -0.0347341 0)
(0.589733 -0.00992088 0)
(0.605279 0.0118484 0)
(0.624271 0.0301501 0)
(0.645844 0.0439268 0)
(0.672788 0.0518509 0)
(0.673649 -0.440373 0)
(0.639383 -0.421963 0)