/*--------------------------------*- C++ -*----------------------------------*\
  =========                 |
  \\      /  F ield         | OpenFOAM: The Open Source CFD Toolbox
   \\    /   O peration     | Website:  https://openfoam.org
    \\  /    A nd           | Version:  10
     \\/     M anipulation  |
\*---------------------------------------------------------------------------*/
FoamFile
{
    format      ascii;
    class       volVectorField;
    location    "0";
    object      U;
}
// * * * * * * * * * * * * * * * * * * * * * * * * * * * * * * * * * * * * * //

dimensions      [0 1 -1 0 0 0 0];

internalField   nonuniform List<vector> 
18483
(
(1 -0.000190661 0)
(1 -0.000691114 0)
(1 -0.00112522 0)
(0.999995 -0.00161492 0)
(0.99999 -0.00211176 0)
(0.999984 -0.00262201 0)
(0.999977 -0.00312499 0)
(0.999969 -0.00360469 0)
(0.99996 -0.00404658 0)
(0.999949 -0.00444208 0)
(0.999937 -0.00479148 0)
(0.999926 -0.00510567 0)
(0.999919 -0.00540556 0)
(0.999922 -0.00573703 0)
(0.999935 -0.00614727 0)
(0.999944 -0.00665825 0)
(0.999863 -0.00722653 0)
(0.999338 -0.00774826 0)
(0.997481 -0.00812896 0)
(0.993379 -0.00828138 0)
(0.98797 -0.00822566 0)
(0.984541 -0.00807509 0)
(0.985222 -0.00785244 0)
(0.988617 -0.00754303 0)
(0.992296 -0.00720603 0)
(0.995097 -0.00690562 0)
(0.996928 -0.00666144 0)
(0.998041 -0.0064716 0)
(0.998691 -0.00632662 0)
(1.00058 -0.000544095 0)
(1.00063 -0.00196335 0)
(1.00073 -0.00320793 0)
(1.00084 -0.00463503 0)
(1.00097 -0.00610147 0)
(1.00109 -0.00763188 0)
(1.00118 -0.00916412 0)
(1.00124 -0.0106472 0)
(1.00126 -0.0120227 0)
(1.00124 -0.0132416 0)
(1.00119 -0.014264 0)
(1.00115 -0.0150765 0)
(1.00114 -0.0156589 0)
(1.0012 -0.0159289 0)
(1.00132 -0.0157913 0)
(1.00145 -0.0151923 0)
(1.00157 -0.0142239 0)
(1.0019 -0.0131313 0)
(1.00325 -0.0122028 0)
(1.00662 -0.011781 0)
(1.01133 -0.0120088 0)
(1.01402 -0.0125999 0)
(1.01233 -0.0132013 0)
(1.00796 -0.0137032 0)
(1.00383 -0.0140656 0)
(1.00107 -0.0142644 0)
(0.999505 -0.0143329 0)
(0.998685 -0.014314 0)
(0.998282 -0.0142425 0)
(1.00168 -0.000870024 0)
(1.00182 -0.0031115 0)
(1.0021 -0.00507004 0)
(1.00243 -0.00732266 0)
(1.0028 -0.00963041 0)
(1.00314 -0.0120482 0)
(1.00342 -0.0144778 0)
(1.00359 -0.0168425 0)
(1.00362 -0.0190471 0)
(1.0035 -0.0210152 0)
(1.00323 -0.0226873 0)
(1.00282 -0.0240256 0)
(1.00231 -0.0250251 0)
(1.00172 -0.0257429 0)
(1.001 -0.0263497 0)
(1.00012 -0.0270653 0)
(0.999096 -0.0279415 0)
(0.997911 -0.0288016 0)
(0.996274 -0.0293654 0)
(0.993673 -0.0293435 0)
(0.990308 -0.0286052 0)
(0.987969 -0.0274396 0)
(0.98831 -0.026352 0)
(0.99046 -0.0254714 0)
(0.992506 -0.0247168 0)
(0.993737 -0.0240849 0)
(0.994321 -0.0235605 0)
(0.994541 -0.0231233 0)
(0.99458 -0.0227597 0)
(1.00303 -0.00117527 0)
(1.00328 -0.00416487 0)
(1.00376 -0.006753 0)
(1.00434 -0.00972138 0)
(1.00498 -0.0127376 0)
(1.00559 -0.0158974 0)
(1.00608 -0.0190814 0)
(1.00638 -0.0222062 0)
(1.00644 -0.0251586 0)
(1.00621 -0.0278426 0)
(1.00572 -0.030176 0)
(1.005 -0.0320953 0)
(1.00412 -0.0335947 0)
(1.00314 -0.0347145 0)
(1.00214 -0.0354331 0)
(1.00119 -0.035572 0)
(1.00036 -0.0350158 0)
(0.999761 -0.0339428 0)
(0.999826 -0.0327379 0)
(1.00134 -0.0317916 0)
(1.00433 -0.031344 0)
(1.00662 -0.0313681 0)
(1.00578 -0.0314626 0)
(1.00232 -0.0314314 0)
(0.998657 -0.0313942 0)
(0.996007 -0.0313359 0)
(0.994326 -0.0312305 0)
(0.993283 -0.0310863 0)
(0.992623 -0.0309134 0)
(1.00445 -0.00144716 0)
(1.00483 -0.00508832 0)
(1.00551 -0.00821225 0)
(1.00636 -0.01178 0)
(1.0073 -0.0153772 0)
(1.00821 -0.0191478 0)
(1.00897 -0.0229611 0)
(1.00948 -0.0267351 0)
(1.00965 -0.0303356 0)
(1.00944 -0.0336355 0)
(1.00885 -0.0365213 0)
(1.00792 -0.0389071 0)
(1.00669 -0.0407671 0)
(1.00523 -0.0421054 0)
(1.0036 -0.0429675 0)
(1.00182 -0.0435389 0)
(0.999838 -0.0440773 0)
(0.997704 -0.0446933 0)
(0.995373 -0.0451782 0)
(0.992541 -0.045161 0)
(0.989033 -0.0444562 0)
(0.985838 -0.043123 0)
(0.984733 -0.0416355 0)
(0.985778 -0.0403614 0)
(0.987201 -0.03917 0)
(0.987939 -0.0380517 0)
(0.988079 -0.0370677 0)
(0.987918 -0.0362174 0)
(0.987637 -0.0354937 0)
(1.00592 -0.00167621 0)
(1.00641 -0.00585482 0)
(1.0073 -0.0094158 0)
(1.00842 -0.0134699 0)
(1.00968 -0.0175349 0)
(1.01093 -0.0218064 0)
(1.01201 -0.0261485 0)
(1.01278 -0.0304897 0)
(1.01312 -0.0346893 0)
(1.01294 -0.0386148 0)
(1.01219 -0.0421524 0)
(1.01088 -0.0452181 0)
(1.00909 -0.0477666 0)
(1.00693 -0.0497769 0)
(1.00453 -0.0512491 0)
(1.00203 -0.052154 0)
(0.999591 -0.0523352 0)
(0.997333 -0.0517001 0)
(0.995518 -0.0504776 0)
(0.994807 -0.049089 0)
(0.995837 -0.0479028 0)
(0.997609 -0.0471308 0)
(0.997456 -0.0465485 0)
(0.994431 -0.0458843 0)
(0.990522 -0.0453411 0)
(0.987475 -0.0449583 0)
(0.985404 -0.0446012 0)
(0.983958 -0.0442367 0)
(0.982895 -0.0438594 0)
(1.00743 -0.00186396 0)
(1.00804 -0.00647343 0)
(1.00913 -0.0103848 0)
(1.01052 -0.014831 0)
(1.0121 -0.0192749 0)
(1.0137 -0.0239662 0)
(1.01513 -0.0287736 0)
(1.01621 -0.033652 0)
(1.01677 -0.0384734 0)
(1.01667 -0.0431113 0)
(1.01587 -0.047429 0)
(1.01441 -0.0512884 0)
(1.01239 -0.054554 0)
(1.00996 -0.057113 0)
(1.00722 -0.0589068 0)
(1.00424 -0.0599913 0)
(1.00103 -0.0606647 0)
(0.997566 -0.0612984 0)
(0.993832 -0.0619055 0)
(0.989568 -0.0621351 0)
(0.984363 -0.0616799 0)
(0.978804 -0.0604987 0)
(0.975233 -0.0590077 0)
(0.97511 -0.0575976 0)
(0.976562 -0.0560886 0)
(0.97738 -0.0544511 0)
(0.97737 -0.0529133 0)
(0.976974 -0.0515493 0)
(0.976433 -0.0503703 0)
(1.00895 -0.00201707 0)
(1.00968 -0.00697009 0)
(1.01096 -0.0111636 0)
(1.01261 -0.0159293 0)
(1.01452 -0.0206858 0)
(1.01648 -0.0257387 0)
(1.0183 -0.0309671 0)
(1.01975 -0.0363587 0)
(1.02065 -0.0417967 0)
(1.02083 -0.0471497 0)
(1.02023 -0.0522455 0)
(1.01882 -0.0569043 0)
(1.01666 -0.0609726 0)
(1.01379 -0.0643599 0)
(1.01026 -0.06707 0)
(1.0062 -0.0691543 0)
(1.00179 -0.0705456 0)
(0.997298 -0.07088 0)
(0.993035 -0.070017 0)
(0.98982 -0.0684286 0)
(0.989018 -0.0667476 0)
(0.990516 -0.0654166 0)
(0.990939 -0.064279 0)
(0.987304 -0.063036 0)
(0.981485 -0.0620387 0)
(0.976781 -0.0614195 0)
(0.973645 -0.0608678 0)
(0.971378 -0.0602834 0)
(0.96963 -0.0596701 0)
(1.01044 -0.0021419 0)
(1.01128 -0.00736909 0)
(1.01274 -0.0117914 0)
(1.01465 -0.0168197 0)
(1.01688 -0.0218361 0)
(1.01922 -0.0272001 0)
(1.02146 -0.0328016 0)
(1.02336 -0.0386613 0)
(1.02469 -0.0446795 0)
(1.02526 -0.0507407 0)
(1.0249 -0.0566835 0)
(1.02352 -0.0623387 0)
(1.0211 -0.0675481 0)
(1.01773 -0.0721693 0)
(1.0136 -0.0760548 0)
(1.00894 -0.0790171 0)
(1.00395 -0.0810274 0)
(0.998597 -0.0824019 0)
(0.992768 -0.0836108 0)
(0.986412 -0.0846598 0)
(0.978914 -0.0850246 0)
(0.970063 -0.084362 0)
(0.962818 -0.0830856 0)
(0.961032 -0.0817622 0)
(0.962967 -0.0800908 0)
(0.96408 -0.0779135 0)
(0.963627 -0.0757435 0)
(0.962655 -0.0737988 0)
(0.961547 -0.0720949 0)
(1.01186 -0.00224311 0)
(1.0128 -0.00768759 0)
(1.01444 -0.0122946 0)
(1.01658 -0.0175374 0)
(1.01913 -0.0227673 0)
(1.02185 -0.0283927 0)
(1.02452 -0.0343153 0)
(1.0269 -0.0405932 0)
(1.02872 -0.0471613 0)
(1.02974 -0.0539439 0)
(1.02972 -0.0608059 0)
(1.02856 -0.0675642 0)
(1.02624 -0.0739824 0)
(1.02286 -0.0797898 0)
(1.01857 -0.0847529 0)
(1.01344 -0.088723 0)
(1.00748 -0.0916999 0)
(1.00078 -0.0935987 0)
(0.993853 -0.0940622 0)
(0.987867 -0.0930771 0)
(0.984786 -0.091412 0)
(0.985658 -0.0899657 0)
(0.98678 -0.0887799 0)
(0.982122 -0.0873053 0)
(0.972708 -0.0859767 0)
(0.964837 -0.0853161 0)
(0.959985 -0.0847652 0)
(0.956474 -0.0840579 0)
(0.953729 -0.0832721 0)
(1.0132 -0.00232372 0)
(1.01424 -0.00793652 0)
(1.01603 -0.0126895 0)
(1.01841 -0.0181037 0)
(1.02125 -0.0235033 0)
(1.02434 -0.0293412 0)
(1.02745 -0.0355317 0)
(1.03033 -0.0421723 0)
(1.03271 -0.0492371 0)
(1.0343 -0.0566891 0)
(1.03488 -0.0644086 0)
(1.03427 -0.0722019 0)
(1.03238 -0.0798117 0)
(1.02916 -0.0869645 0)
(1.02458 -0.093453 0)
(1.01872 -0.0991131 0)
(1.01174 -0.103776 0)
(1.00394 -0.107402 0)
(0.995641 -0.110421 0)
(0.986954 -0.113364 0)
(0.97695 -0.115819 0)
(0.964176 -0.116703 0)
(0.951495 -0.11593 0)
(0.946217 -0.114654 0)
(0.948522 -0.11296 0)
(0.950198 -0.110228 0)
(0.948791 -0.107254 0)
(0.94674 -0.10464 0)
(0.944681 -0.102331 0)
(1.01444 -0.00238601 0)
(1.01557 -0.00812376 0)
(1.01751 -0.0129877 0)
(1.0201 -0.0185333 0)
(1.02323 -0.0240611 0)
(1.02668 -0.0300632 0)
(1.03023 -0.0364642 0)
(1.03364 -0.0433952 0)
(1.03664 -0.0508645 0)
(1.03894 -0.0588748 0)
(1.04026 -0.0673469 0)
(1.04035 -0.0761342 0)
(1.03895 -0.0850264 0)
(1.03593 -0.0937494 0)
(1.03128 -0.101978 0)
(1.02516 -0.109327 0)
(1.01776 -0.115434 0)
(1.00928 -0.120035 0)
(1.00014 -0.122819 0)
(0.9914 -0.123456 0)
(0.985084 -0.122323 0)
(0.983627 -0.120821 0)
(0.984867 -0.120083 0)
(0.97976 -0.119321 0)
(0.965784 -0.118079 0)
(0.952801 -0.117583 0)
(0.945458 -0.117388 0)
(0.940276 -0.116689 0)
(0.936105 -0.115756 0)
(1.01558 -0.0024322 0)
(1.01679 -0.00825697 0)
(1.01887 -0.0132006 0)
(1.02166 -0.0188414 0)
(1.02506 -0.0244585 0)
(1.02885 -0.0305774 0)
(1.03284 -0.0371286 0)
(1.03678 -0.0442699 0)
(1.04042 -0.0520433 0)
(1.04346 -0.060504 0)
(1.04556 -0.06964 0)
(1.0464 -0.0793721 0)
(1.0457 -0.0895211 0)
(1.04328 -0.0997748 0)
(1.03905 -0.10972 0)
(1.03301 -0.118943 0)
(1.02515 -0.127172 0)
(1.01566 -0.13432 0)
(1.00498 -0.140617 0)
(0.993573 -0.146712 0)
(0.980819 -0.152621 0)
(0.964395 -0.156757 0)
(0.945324 -0.157471 0)
(0.933437 -0.155979 0)
(0.93428 -0.15414 0)
(0.936887 -0.151054 0)
(0.934031 -0.147007 0)
(0.930075 -0.14353 0)
(0.92654 -0.140515 0)
(1.01662 -0.00246479 0)
(1.0179 -0.00834456 0)
(1.02011 -0.0133407 0)
(1.02309 -0.0190451 0)
(1.02673 -0.0247167 0)
(1.03085 -0.0309088 0)
(1.03524 -0.0375542 0)
(1.03969 -0.0448326 0)
(1.04395 -0.0528203 0)
(1.04772 -0.0616267 0)
(1.05066 -0.0713036 0)
(1.05246 -0.0818298 0)
(1.05278 -0.0930673 0)
(1.05132 -0.104744 0)
(1.04781 -0.116495 0)
(1.04204 -0.127911 0)
(1.03408 -0.138562 0)
(1.0243 -0.147929 0)
(1.01327 -0.155239 0)
(1.00184 -0.159461 0)
(0.991453 -0.160141 0)
(0.985171 -0.158742 0)
(0.984415 -0.158185 0)
(0.980134 -0.159125 0)
(0.962798 -0.1591 0)
(0.942417 -0.158747 0)
(0.930837 -0.159176 0)
(0.923437 -0.158663 0)
(0.917074 -0.15741 0)
(1.01756 -0.00248635 0)
(1.01891 -0.00839512 0)
(1.02124 -0.0134214 0)
(1.02439 -0.0191626 0)
(1.02826 -0.024859 0)
(1.03266 -0.0310872 0)
(1.03743 -0.037779 0)
(1.04236 -0.0451307 0)
(1.04721 -0.0532462 0)
(1.05173 -0.0622781 0)
(1.05561 -0.0723319 0)
(1.0585 -0.0834565 0)
(1.06002 -0.095608 0)
(1.05971 -0.108619 0)
(1.05716 -0.122181 0)
(1.05213 -0.135818 0)
(1.04462 -0.148975 0)
(1.03479 -0.161156 0)
(1.02273 -0.172106 0)
(1.00862 -0.182373 0)
(0.992459 -0.192854 0)
(0.972765 -0.202442 0)
(0.948106 -0.207619 0)
(0.926459 -0.207008 0)
(0.92065 -0.204429 0)
(0.923555 -0.201329 0)
(0.919523 -0.196156 0)
(0.912275 -0.191223 0)
(0.906463 -0.187293 0)
(1.01842 -0.0024993 0)
(1.01983 -0.00841674 0)
(1.02227 -0.0134552 0)
(1.02556 -0.0192116 0)
(1.02964 -0.0249088 0)
(1.03431 -0.0311429 0)
(1.03942 -0.0378409 0)
(1.04479 -0.0452088 0)
(1.05023 -0.0533682 0)
(1.05549 -0.0625054 0)
(1.06031 -0.0727804 0)
(1.06431 -0.0843293 0)
(1.06706 -0.0972217 0)
(1.06807 -0.111392 0)
(1.06685 -0.12659 0)
(1.06305 -0.142374 0)
(1.05645 -0.158232 0)
(1.04701 -0.173631 0)
(1.0349 -0.187682 0)
(1.02076 -0.198724 0)
(1.00609 -0.204743 0)
(0.993281 -0.205538 0)
(0.986455 -0.204722 0)
(0.982373 -0.207087 0)
(0.965286 -0.210362 0)
(0.936402 -0.210852 0)
(0.916357 -0.21165 0)
(0.905523 -0.211797 0)
(0.895715 -0.209884 0)
(1.0192 -0.00250575 0)
(1.02066 -0.00841662 0)
(1.0232 -0.0134536 0)
(1.02663 -0.019208 0)
(1.0309 -0.0248877 0)
(1.03581 -0.0311038 0)
(1.04123 -0.0377745 0)
(1.047 -0.0451104 0)
(1.05297 -0.0532428 0)
(1.05893 -0.0623872 0)
(1.06461 -0.0727558 0)
(1.06969 -0.0845658 0)
(1.07374 -0.0979849 0)
(1.07626 -0.113052 0)
(1.0767 -0.12964 0)
(1.07452 -0.147437 0)
(1.06933 -0.16596 0)
(1.06096 -0.184546 0)
(1.04921 -0.202269 0)
(1.0338 -0.218479 0)
(1.01461 -0.234307 0)
(0.991406 -0.251016 0)
(0.962695 -0.265118 0)
(0.930721 -0.270091 0)
(0.910682 -0.26733 0)
(0.908946 -0.263834 0)
(0.905027 -0.258537 0)
(0.89289 -0.251338 0)
(0.8829 -0.245926 0)
(1.0199 -0.00250744 0)
(1.02141 -0.00840085 0)
(1.02404 -0.0134263 0)
(1.02759 -0.0191661 0)
(1.03203 -0.0248143 0)
(1.03715 -0.0309946 0)
(1.04285 -0.0376123 0)
(1.04898 -0.0448796 0)
(1.05542 -0.0529327 0)
(1.062 -0.0620086 0)
(1.06849 -0.0723592 0)
(1.07462 -0.084263 0)
(1.08002 -0.0979778 0)
(1.08419 -0.113669 0)
(1.08647 -0.131372 0)
(1.08624 -0.150933 0)
(1.08298 -0.171937 0)
(1.07623 -0.19377 0)
(1.06542 -0.215597 0)
(1.05029 -0.235899 0)
(1.0319 -0.251937 0)
(1.01286 -0.260625 0)
(0.997145 -0.262434 0)
(0.988216 -0.264575 0)
(0.973647 -0.272367 0)
(0.939183 -0.277674 0)
(0.904287 -0.278621 0)
(0.88572 -0.279825 0)
(0.87093 -0.277518 0)
(1.02054 -0.00250576 0)
(1.0221 -0.00837432 0)
(1.0248 -0.0133814 0)
(1.02846 -0.0190972 0)
(1.03305 -0.0247042 0)
(1.03836 -0.0308361 0)
(1.0443 -0.0373827 0)
(1.05076 -0.0445562 0)
(1.05761 -0.0524924 0)
(1.06474 -0.0614384 0)
(1.07199 -0.0716711 0)
(1.07915 -0.0835169 0)
(1.08588 -0.0973224 0)
(1.09168 -0.113385 0)
(1.0959 -0.131898 0)
(1.09788 -0.152881 0)
(1.09696 -0.176074 0)
(1.09243 -0.200949 0)
(1.08344 -0.226653 0)
(1.06927 -0.251745 0)
(1.0494 -0.275377 0)
(1.02351 -0.29964 0)
(0.991467 -0.325505 0)
(0.952288 -0.345043 0)
(0.913423 -0.348691 0)
(0.895046 -0.343755 0)
(0.88976 -0.339392 0)
(0.873115 -0.33099 0)
(0.854612 -0.322554 0)
(1.02113 -0.00250177 0)
(1.02272 -0.00834082 0)
(1.0255 -0.0133252 0)
(1.02925 -0.0190106 0)
(1.03398 -0.02457 0)
(1.03945 -0.0306455 0)
(1.04561 -0.0371091 0)
(1.05234 -0.0441718 0)
(1.05956 -0.0519636 0)
(1.0672 -0.0607317 0)
(1.07514 -0.070768 0)
(1.08324 -0.0824385 0)
(1.09121 -0.0961677 0)
(1.09859 -0.112369 0)
(1.10478 -0.131374 0)
(1.10913 -0.153393 0)
(1.11089 -0.178381 0)
(1.1091 -0.205946 0)
(1.1026 -0.23544 0)
(1.09023 -0.26574 0)
(1.0715 -0.294609 0)
(1.04821 -0.31798 0)
(1.02417 -0.331036 0)
(1.00421 -0.335571 0)
(0.988139 -0.345254 0)
(0.954932 -0.361186 0)
(0.902851 -0.367216 0)
(0.865327 -0.368525 0)
(0.84259 -0.367688 0)
(1.02166 -0.00249624 0)
(1.02329 -0.00830319 0)
(1.02613 -0.0132623 0)
(1.02996 -0.0189134 0)
(1.03482 -0.0244216 0)
(1.04043 -0.0304361 0)
(1.04677 -0.0368095 0)
(1.05375 -0.0437507 0)
(1.0613 -0.0513795 0)
(1.06938 -0.0599375 0)
(1.07795 -0.0697249 0)
(1.08688 -0.0811364 0)
(1.09597 -0.0946521 0)
(1.10486 -0.110781 0)
(1.11299 -0.12998 0)
(1.11976 -0.152644 0)
(1.1244 -0.178976 0)
(1.12576 -0.20878 0)
(1.12244 -0.241625 0)
(1.11302 -0.276573 0)
(1.09633 -0.311594 0)
(1.07148 -0.346116 0)
(1.03798 -0.383837 0)
(0.994872 -0.423731 0)
(0.941193 -0.449175 0)
(0.893691 -0.449864 0)
(0.873504 -0.444359 0)
(0.855247 -0.43926 0)
(0.823531 -0.427071 0)
(1.02213 -0.0024898 0)
(1.0238 -0.00826361 0)
(1.02669 -0.0131965 0)
(1.0306 -0.018811 0)
(1.03556 -0.0242666 0)
(1.0413 -0.0302181 0)
(1.04781 -0.0364977 0)
(1.055 -0.0433124 0)
(1.06284 -0.0507688 0)
(1.0713 -0.0590995 0)
(1.0804 -0.0686056 0)
(1.09006 -0.0796979 0)
(1.10018 -0.0928908 0)
(1.11048 -0.108771 0)
(1.12048 -0.127909 0)
(1.12962 -0.150858 0)
(1.13721 -0.178067 0)
(1.14202 -0.209585 0)
(1.14239 -0.245194 0)
(1.1367 -0.284466 0)
(1.12319 -0.32598 0)
(1.10115 -0.366871 0)
(1.07346 -0.401482 0)
(1.04369 -0.421736 0)
(1.01588 -0.432196 0)
(0.984742 -0.456744 0)
(0.925189 -0.482918 0)
(0.854816 -0.487615 0)
(0.811313 -0.488743 0)
(1.02256 -0.00248288 0)
(1.02425 -0.00822368 0)
(1.02719 -0.0131303 0)
(1.03117 -0.0187075 0)
(1.03623 -0.0241107 0)
(1.04207 -0.0299992 0)
(1.04873 -0.0361846 0)
(1.0561 -0.0428723 0)
(1.06418 -0.0501543 0)
(1.07298 -0.058251 0)
(1.08252 -0.0674573 0)
(1.09285 -0.0781887 0)
(1.1039 -0.0909804 0)
(1.11549 -0.106478 0)
(1.12723 -0.125352 0)
(1.13863 -0.148274 0)
(1.14911 -0.175906 0)
(1.15749 -0.208591 0)
(1.16191 -0.246338 0)
(1.16058 -0.289145 0)
(1.15174 -0.336059 0)
(1.13354 -0.384616 0)
(1.10438 -0.435192 0)
(1.06248 -0.493885 0)
(1.00427 -0.555974 0)
(0.929285 -0.589008 0)
(0.868056 -0.585413 0)
(0.837716 -0.58301 0)
(0.795943 -0.574976 0)
(1.02293 -0.00247582 0)
(1.02465 -0.00818456 0)
(1.02764 -0.0130657 0)
(1.03167 -0.0186058 0)
(1.03682 -0.0239583 0)
(1.04275 -0.029785 0)
(1.04954 -0.0358784 0)
(1.05707 -0.0424425 0)
(1.06535 -0.0495527 0)
(1.07443 -0.0574161 0)
(1.08438 -0.0663147 0)
(1.09528 -0.076662 0)
(1.10715 -0.0890041 0)
(1.11989 -0.104025 0)
(1.13323 -0.122478 0)
(1.14674 -0.145125 0)
(1.15995 -0.172786 0)
(1.17187 -0.206103 0)
(1.18055 -0.245347 0)
(1.18403 -0.290809 0)
(1.18055 -0.342417 0)
(1.16779 -0.398836 0)
(1.14428 -0.456974 0)
(1.11245 -0.508505 0)
(1.07441 -0.539838 0)
(1.03394 -0.563433 0)
(0.978018 -0.61621 0)
(0.879731 -0.652934 0)
(0.783673 -0.652263 0)
(1.02327 -0.00246886 0)
(1.02501 -0.00814704 0)
(1.02804 -0.0130038 0)
(1.03211 -0.018508 0)
(1.03734 -0.0238121 0)
(1.04335 -0.0295796 0)
(1.05025 -0.0355849 0)
(1.05791 -0.0420308 0)
(1.06637 -0.0489754 0)
(1.07569 -0.0566113 0)
(1.08598 -0.0652046 0)
(1.09738 -0.0751609 0)
(1.10997 -0.0870292 0)
(1.12372 -0.101516 0)
(1.13848 -0.11943 0)
(1.15394 -0.141614 0)
(1.16971 -0.168989 0)
(1.18498 -0.202438 0)
(1.19798 -0.242556 0)
(1.2065 -0.289883 0)
(1.20883 -0.344907 0)
(1.20321 -0.407192 0)
(1.18653 -0.474581 0)
(1.1536 -0.548014 0)
(1.10156 -0.639066 0)
(1.02432 -0.740036 0)
(0.915573 -0.786567 0)
(0.824335 -0.7781 0)
(0.767878 -0.781486 0)
(1.02357 -0.00246214 0)
(1.02533 -0.00811167 0)
(1.02839 -0.0129456 0)
(1.03251 -0.0184156 0)
(1.0378 -0.0236742 0)
(1.04388 -0.0293859 0)
(1.05087 -0.035308 0)
(1.05865 -0.0416429 0)
(1.06726 -0.0484303 0)
(1.07678 -0.0558491 0)
(1.08736 -0.0641473 0)
(1.09918 -0.0737184 0)
(1.11237 -0.0851071 0)
(1.12701 -0.0990278 0)
(1.14303 -0.116326 0)
(1.16026 -0.137911 0)
(1.17839 -0.164772 0)
(1.19675 -0.19795 0)
(1.21387 -0.238349 0)
(1.22759 -0.286814 0)
(1.23598 -0.344101 0)
(1.23767 -0.410861 0)
(1.2299 -0.487411 0)
(1.20752 -0.570579 0)
(1.17094 -0.647599 0)
(1.12228 -0.697063 0)
(1.06359 -0.749912 0)
(0.964541 -0.858606 0)
(0.794718 -0.898631 0)
(1.02383 -0.00245578 0)
(1.02561 -0.00807877 0)
(1.0287 -0.0128915 0)
(1.03286 -0.0183294 0)
(1.0382 -0.0235459 0)
(1.04435 -0.0292053 0)
(1.05142 -0.0350502 0)
(1.05929 -0.0412818 0)
(1.06803 -0.0479226 0)
(1.07772 -0.0551378 0)
(1.08854 -0.0631566 0)
(1.10071 -0.0723568 0)
(1.11443 -0.0832734 0)
(1.12983 -0.0966204 0)
(1.14696 -0.113263 0)
(1.16574 -0.134155 0)
(1.18601 -0.160342 0)
(1.2072 -0.192957 0)
(1.22807 -0.233116 0)
(1.24686 -0.282014 0)
(1.26152 -0.340693 0)
(1.27056 -0.410174 0)
(1.27296 -0.492226 0)
(1.26288 -0.585996 0)
(1.22712 -0.690741 0)
(1.16553 -0.831805 0)
(1.07519 -1.01255 0)
(0.901388 -1.09884 0)
(0.710089 -1.07651 0)
(1.02407 -0.00244984 0)
(1.02586 -0.00804855 0)
(1.02898 -0.0128417 0)
(1.03317 -0.01825 0)
(1.03855 -0.0234279 0)
(1.04475 -0.0290391 0)
(1.0519 -0.0348129 0)
(1.05985 -0.0409498 0)
(1.0687 -0.0474553 0)
(1.07853 -0.0544824 0)
(1.08955 -0.0622405 0)
(1.10201 -0.0710906 0)
(1.11617 -0.0815533 0)
(1.13224 -0.0943368 0)
(1.15031 -0.110313 0)
(1.17046 -0.130462 0)
(1.19261 -0.155871 0)
(1.21636 -0.187734 0)
(1.24063 -0.227278 0)
(1.26402 -0.275952 0)
(1.28496 -0.335239 0)
(1.30157 -0.406229 0)
(1.31304 -0.491308 0)
(1.31646 -0.594823 0)
(1.30178 -0.715008 0)
(1.26651 -0.830064 0)
(1.20861 -0.912506 0)
(1.12203 -1.04363 0)
(0.915924 -1.27049 0)
(1.02427 -0.00244437 0)
(1.02608 -0.00802106 0)
(1.02922 -0.0127963 0)
(1.03344 -0.0181775 0)
(1.03886 -0.0233203 0)
(1.04511 -0.0288874 0)
(1.05231 -0.0345966 0)
(1.06033 -0.0406473 0)
(1.06927 -0.0470296 0)
(1.07922 -0.0538846 0)
(1.09041 -0.0614028 0)
(1.10311 -0.069927 0)
(1.11765 -0.0799618 0)
(1.13427 -0.0922048 0)
(1.15317 -0.107527 0)
(1.17448 -0.12692 0)
(1.19828 -0.15149 0)
(1.22431 -0.182477 0)
(1.25162 -0.221169 0)
(1.27905 -0.269106 0)
(1.3058 -0.328181 0)
(1.33011 -0.399875 0)
(1.35025 -0.486189 0)
(1.36723 -0.592956 0)
(1.37558 -0.722376 0)
(1.34804 -0.86311 0)
(1.28378 -1.07193 0)
(1.20306 -1.44918 0)
(0.836079 -1.60202 0)
(0.999057 -0.00621456 0)
(0.99926 -0.00611798 0)
(0.999336 -0.0060259 0)
(0.999293 -0.00593681 0)
(0.999125 -0.00584941 0)
(0.998819 -0.00576231 0)
(0.998355 -0.00567433 0)
(0.99771 -0.00558458 0)
(0.996864 -0.00549263 0)
(0.995802 -0.00539862 0)
(0.994527 -0.00530338 0)
(0.993064 -0.00520844 0)
(0.991463 -0.00511593 0)
(0.989804 -0.0050283 0)
(0.988192 -0.00494791 0)
(0.986749 -0.00487648 0)
(0.985598 -0.00481454 0)
(0.984848 -0.00476109 0)
(0.984575 -0.00471351 0)
(0.998099 -0.0141453 0)
(0.998032 -0.0140351 0)
(0.99805 -0.0139143 0)
(0.998147 -0.0137873 0)
(0.998326 -0.0136568 0)
(0.998605 -0.0135251 0)
(0.999009 -0.0133947 0)
(0.999568 -0.0132675 0)
(1.00031 -0.0131446 0)
(1.00128 -0.013026 0)
(1.00246 -0.0129098 0)
(1.00387 -0.0127923 0)
(1.00546 -0.0126678 0)
(1.00715 -0.0125287 0)
(1.00884 -0.012367 0)
(1.01039 -0.0121752 0)
(1.01165 -0.0119482 0)
(1.01247 -0.011685 0)
(1.01277 -0.0113894 0)
(0.994533 -0.0224519 0)
(0.994439 -0.0221623 0)
(0.994302 -0.0218627 0)
(0.994123 -0.0215526 0)
(0.993893 -0.0212325 0)
(0.993596 -0.0209025 0)
(0.993209 -0.0205629 0)
(0.992699 -0.0202142 0)
(0.992029 -0.019858 0)
(0.991159 -0.019497 0)
(0.990054 -0.0191359 0)
(0.988693 -0.0187814 0)
(0.987082 -0.0184425 0)
(0.985265 -0.01813 0)
(0.983329 -0.0178544 0)
(0.98141 -0.0176245 0)
(0.979677 -0.0174442 0)
(0.97831 -0.0173109 0)
(0.977471 -0.017214 0)
(0.992189 -0.0307278 0)
(0.991876 -0.0305358 0)
(0.991641 -0.0303349 0)
(0.99148 -0.0301271 0)
(0.991398 -0.0299119 0)
(0.991409 -0.0296889 0)
(0.99154 -0.0294576 0)
(0.991828 -0.0292168 0)
(0.992318 -0.0289641 0)
(0.993062 -0.0286953 0)
(0.994105 -0.028404 0)
(0.995478 -0.0280806 0)
(0.997179 -0.0277125 0)
(0.999154 -0.027285 0)
(1.00129 -0.0267831 0)
(1.0034 -0.0261949 0)
(1.00526 -0.0255154 0)
(1.00662 -0.0247502 0)
(1.00726 -0.0239172 0)
(0.987324 -0.0348727 0)
(0.986992 -0.0342853 0)
(0.98663 -0.0336774 0)
(0.986236 -0.0330478 0)
(0.985802 -0.0323968 0)
(0.985311 -0.0317245 0)
(0.984732 -0.0310311 0)
(0.984025 -0.0303179 0)
(0.983134 -0.0295875 0)
(0.98199 -0.0288451 0)
(0.980519 -0.028099 0)
(0.978655 -0.0273619 0)
(0.97636 -0.0266515 0)
(0.973649 -0.025989 0)
(0.970621 -0.0253971 0)
(0.967473 -0.0248952 0)
(0.964496 -0.0244942 0)
(0.962036 -0.0241912 0)
(0.960432 -0.0239665 0)
(0.982072 -0.0434814 0)
(0.981366 -0.0431026 0)
(0.980712 -0.0427123 0)
(0.980108 -0.0423119 0)
(0.979562 -0.0418991 0)
(0.979092 -0.0414726 0)
(0.978731 -0.0410317 0)
(0.97853 -0.040575 0)
(0.978557 -0.0401008 0)
(0.978903 -0.0396055 0)
(0.979666 -0.0390825 0)
(0.980942 -0.0385212 0)
(0.982795 -0.0379052 0)
(0.985217 -0.0372136 0)
(0.988095 -0.0364224 0)
(0.991186 -0.0355103 0)
(0.994119 -0.0344653 0)
(0.996449 -0.033292 0)
(0.997743 -0.032016 0)
(0.97586 -0.0493519 0)
(0.975264 -0.0483861 0)
(0.974622 -0.0473875 0)
(0.973938 -0.0463561 0)
(0.973212 -0.0452943 0)
(0.972433 -0.0442036 0)
(0.971577 -0.0430855 0)
(0.970606 -0.0419422 0)
(0.969457 -0.0407768 0)
(0.968041 -0.0395945 0)
(0.966248 -0.0384038 0)
(0.963954 -0.0372177 0)
(0.961052 -0.0360552 0)
(0.957502 -0.0349408 0)
(0.953379 -0.0339018 0)
(0.948928 -0.0329621 0)
(0.944576 -0.0321345 0)
(0.940884 -0.0314125 0)
(0.938423 -0.0307664 0)
(0.968218 -0.0590464 0)
(0.966962 -0.0584138 0)
(0.965755 -0.0577529 0)
(0.964594 -0.0570663 0)
(0.963489 -0.0563522 0)
(0.962458 -0.0556101 0)
(0.961538 -0.0548404 0)
(0.960782 -0.0540433 0)
(0.960273 -0.053219 0)
(0.96012 -0.0523663 0)
(0.96046 -0.0514814 0)
(0.961443 -0.0505559 0)
(0.963191 -0.0495751 0)
(0.965751 -0.0485172 0)
(0.96902 -0.0473559 0)
(0.97269 -0.0460657 0)
(0.976249 -0.0446323 0)
(0.979045 -0.0430618 0)
(0.980439 -0.0413865 0)
(0.960444 -0.0706168 0)
(0.959344 -0.0692116 0)
(0.958198 -0.0677598 0)
(0.957023 -0.0662641 0)
(0.955825 -0.0647294 0)
(0.954605 -0.0631591 0)
(0.953349 -0.0615562 0)
(0.952025 -0.0599236 0)
(0.950574 -0.0582644 0)
(0.948899 -0.0565826 0)
(0.946866 -0.0548841 0)
(0.944304 -0.0531787 0)
(0.941046 -0.0514819 0)
(0.93698 -0.0498153 0)
(0.932144 -0.0482047 0)
(0.926808 -0.0466734 0)
(0.921516 -0.0452321 0)
(0.917022 -0.0438682 0)
(0.914097 -0.0425424 0)
(0.951515 -0.0824355 0)
(0.949543 -0.0815639 0)
(0.94765 -0.0806323 0)
(0.945829 -0.0796449 0)
(0.944086 -0.0786007 0)
(0.942436 -0.0775003 0)
(0.940908 -0.0763448 0)
(0.939549 -0.0751351 0)
(0.938434 -0.0738717 0)
(0.937669 -0.0725539 0)
(0.937401 -0.0711787 0)
(0.937802 -0.0697383 0)
(0.939036 -0.0682183 0)
(0.941188 -0.0665958 0)
(0.94417 -0.06484 0)
(0.947631 -0.0629193 0)
(0.950935 -0.0608136 0)
(0.953262 -0.0585294 0)
(0.953838 -0.0561083 0)
(0.942701 -0.100324 0)
(0.940789 -0.0984145 0)
(0.938847 -0.0964372 0)
(0.936897 -0.0943966 0)
(0.934956 -0.0922954 0)
(0.933027 -0.0901343 0)
(0.931101 -0.087913 0)
(0.929153 -0.0856309 0)
(0.927127 -0.0832875 0)
(0.92493 -0.080883 0)
(0.922414 -0.0784199 0)
(0.919388 -0.075905 0)
(0.915634 -0.0733531 0)
(0.91098 -0.07079 0)
(0.905414 -0.0682531 0)
(0.899215 -0.0657849 0)
(0.893035 -0.0634192 0)
(0.887824 -0.061163 0)
(0.884549 -0.0589828 0)
(0.932795 -0.114681 0)
(0.929836 -0.113494 0)
(0.926991 -0.112178 0)
(0.924243 -0.110738 0)
(0.921588 -0.109183 0)
(0.919031 -0.107519 0)
(0.916591 -0.105756 0)
(0.914305 -0.103902 0)
(0.912232 -0.101968 0)
(0.910471 -0.0999606 0)
(0.909166 -0.0978877 0)
(0.908508 -0.0957521 0)
(0.908707 -0.0935483 0)
(0.909919 -0.0912566 0)
(0.912124 -0.088838 0)
(0.914989 -0.0862364 0)
(0.917796 -0.0833928 0)
(0.919551 -0.0802729 0)
(0.919307 -0.076897 0)
(0.923136 -0.137865 0)
(0.91993 -0.135358 0)
(0.916726 -0.132749 0)
(0.913557 -0.130049 0)
(0.910452 -0.127254 0)
(0.907422 -0.124357 0)
(0.904469 -0.121354 0)
(0.901579 -0.118239 0)
(0.898715 -0.115007 0)
(0.895799 -0.111654 0)
(0.892701 -0.108176 0)
(0.889221 -0.104574 0)
(0.8851 -0.100856 0)
(0.88007 -0.097045 0)
(0.873986 -0.0931922 0)
(0.867011 -0.0893756 0)
(0.859797 -0.0856892 0)
(0.853479 -0.082209 0)
(0.849338 -0.0789508 0)
(0.912152 -0.155909 0)
(0.907735 -0.154119 0)
(0.903473 -0.152067 0)
(0.899365 -0.149767 0)
(0.895384 -0.147246 0)
(0.891538 -0.144535 0)
(0.887839 -0.141661 0)
(0.884308 -0.138652 0)
(0.88099 -0.135536 0)
(0.877957 -0.132339 0)
(0.875327 -0.129089 0)
(0.873282 -0.125812 0)
(0.872059 -0.122526 0)
(0.871912 -0.119236 0)
(0.872983 -0.115913 0)
(0.87511 -0.112482 0)
(0.87764 -0.108819 0)
(0.879421 -0.104794 0)
(0.879165 -0.100342 0)
(0.900852 -0.183685 0)
(0.895618 -0.180289 0)
(0.890507 -0.176724 0)
(0.885501 -0.172991 0)
(0.880689 -0.169091 0)
(0.87608 -0.165004 0)
(0.871687 -0.160728 0)
(0.867521 -0.156261 0)
(0.863561 -0.151603 0)
(0.859768 -0.146758 0)
(0.856049 -0.141728 0)
(0.852241 -0.136515 0)
(0.848079 -0.131121 0)
(0.843208 -0.12556 0)
(0.837265 -0.119878 0)
(0.830101 -0.114178 0)
(0.822099 -0.108632 0)
(0.81443 -0.103448 0)
(0.80886 -0.0987778 0)
(0.888049 -0.207517 0)
(0.881325 -0.204582 0)
(0.874759 -0.201078 0)
(0.868525 -0.197136 0)
(0.862538 -0.192769 0)
(0.856833 -0.188074 0)
(0.851442 -0.183107 0)
(0.846374 -0.177929 0)
(0.841671 -0.172603 0)
(0.837371 -0.167188 0)
(0.83355 -0.161749 0)
(0.830326 -0.156352 0)
(0.827902 -0.151065 0)
(0.826562 -0.145949 0)
(0.826632 -0.141037 0)
(0.828291 -0.136294 0)
(0.831245 -0.131568 0)
(0.834398 -0.126591 0)
(0.835941 -0.121084 0)
(0.873982 -0.240929 0)
(0.865358 -0.235925 0)
(0.857255 -0.230671 0)
(0.849383 -0.22495 0)
(0.841961 -0.218871 0)
(0.835035 -0.212395 0)
(0.828607 -0.205553 0)
(0.822742 -0.198392 0)
(0.817433 -0.190944 0)
(0.812686 -0.183261 0)
(0.808451 -0.175381 0)
(0.804629 -0.167339 0)
(0.801006 -0.159159 0)
(0.797222 -0.150852 0)
(0.792745 -0.142441 0)
(0.786987 -0.134 0)
(0.779663 -0.12573 0)
(0.771429 -0.117988 0)
(0.764371 -0.111232 0)
(0.857994 -0.273342 0)
(0.847346 -0.268518 0)
(0.836745 -0.262339 0)
(0.826839 -0.255398 0)
(0.817563 -0.24765 0)
(0.808915 -0.23925 0)
(0.801071 -0.230352 0)
(0.794001 -0.221038 0)
(0.787786 -0.211462 0)
(0.782436 -0.201743 0)
(0.777986 -0.192026 0)
(0.774466 -0.18246 0)
(0.771965 -0.173202 0)
(0.770657 -0.164419 0)
(0.770874 -0.156276 0)
(0.773091 -0.148893 0)
(0.777676 -0.14226 0)
(0.784238 -0.136107 0)
(0.790832 -0.129774 0)
(0.840375 -0.315936 0)
(0.825875 -0.308142 0)
(0.812485 -0.29981 0)
(0.799818 -0.290361 0)
(0.78794 -0.279908 0)
(0.777264 -0.268655 0)
(0.767651 -0.25659 0)
(0.759329 -0.24396 0)
(0.75229 -0.230877 0)
(0.746594 -0.217518 0)
(0.742216 -0.204035 0)
(0.739108 -0.190565 0)
(0.737112 -0.177227 0)
(0.735944 -0.1641 0)
(0.735078 -0.151225 0)
(0.733672 -0.138634 0)
(0.730623 -0.126449 0)
(0.725179 -0.114972 0)
(0.718348 -0.105082 0)
(0.820414 -0.360787 0)
(0.802206 -0.352785 0)
(0.784705 -0.342404 0)
(0.768017 -0.330081 0)
(0.753074 -0.316457 0)
(0.739399 -0.301317 0)
(0.727576 -0.285223 0)
(0.717515 -0.268274 0)
(0.709382 -0.250789 0)
(0.703175 -0.233052 0)
(0.698929 -0.215341 0)
(0.696586 -0.197974 0)
(0.696125 -0.181269 0)
(0.697518 -0.165571 0)
(0.700869 -0.151248 0)
(0.706544 -0.138683 0)
(0.715322 -0.128182 0)
(0.728042 -0.119996 0)
(0.744431 -0.113218 0)
(0.798209 -0.417531 0)
(0.774469 -0.406351 0)
(0.750981 -0.392179 0)
(0.730114 -0.376463 0)
(0.71046 -0.357985 0)
(0.69344 -0.338016 0)
(0.678713 -0.316442 0)
(0.66667 -0.293766 0)
(0.657316 -0.270396 0)
(0.650776 -0.246634 0)
(0.646979 -0.222898 0)
(0.645935 -0.199511 0)
(0.64748 -0.176803 0)
(0.651392 -0.15505 0)
(0.657228 -0.134454 0)
(0.664194 -0.115092 0)
(0.670824 -0.097155 0)
(0.675046 -0.0804198 0)
(0.673694 -0.0660045 0)
(0.776336 -0.481671 0)
(0.742809 -0.467184 0)
(0.713776 -0.450831 0)
(0.685377 -0.429226 0)
(0.660801 -0.405448 0)
(0.639128 -0.37891 0)
(0.621081 -0.350399 0)
(0.60663 -0.32064 0)
(0.595989 -0.289879 0)
(0.589021 -0.258814 0)
(0.585873 -0.227825 0)
(0.586367 -0.197439 0)
(0.590485 -0.16818 0)
(0.598079 -0.140636 0)
(0.609057 -0.115489 0)
(0.62345 -0.0936287 0)
(0.641912 -0.0755757 0)
(0.665131 -0.0631878 0)
(0.697902 -0.0559823 0)
(0.746959 -0.556976 0)
(0.707877 -0.542122 0)
(0.667456 -0.517899 0)
(0.632395 -0.49061 0)
(0.601076 -0.459002 0)
(0.57451 -0.423941 0)
(0.552736 -0.387172 0)
(0.535992 -0.348442 0)
(0.523886 -0.309069 0)
(0.516795 -0.269234 0)
(0.514316 -0.229578 0)
(0.516652 -0.190578 0)
(0.523662 -0.152738 0)
(0.535318 -0.116633 0)
(0.5514 -0.0828753 0)
(0.571418 -0.0516732 0)
(0.593501 -0.0243062 0)
(0.617305 0.000843935 0)