/*--------------------------------*- C++ -*----------------------------------*\
  =========                 |
  \\      /  F ield         | OpenFOAM: The Open Source CFD Toolbox
   \\    /   O peration     | Website:  https://openfoam.org
    \\  /    A nd           | Version:  10
     \\/     M anipulation  |
\*---------------------------------------------------------------------------*/
FoamFile
{
    format      ascii;
    class       volVectorField;
    location    "0";
    object      U;
}
// * * * * * * * * * * * * * * * * * * * * * * * * * * * * * * * * * * * * * //

dimensions      [0 1 -1 0 0 0 0];

internalField   nonuniform List<vector> 
18483
(
(1 -0.00020927 0)
(1 -0.000750293 0)
(1 -0.00119944 0)
(1 -0.00168591 0)
(1.00001 -0.00215406 0)
(1.00001 -0.00261087 0)
(1.00001 -0.0030375 0)
(1.00001 -0.00342007 0)
(1.00001 -0.00374485 0)
(1.00002 -0.00400093 0)
(1.00004 -0.00418609 0)
(1.00005 -0.00431336 0)
(1.00006 -0.00442126 0)
(1.00005 -0.0045807 0)
(1.00002 -0.00485871 0)
(0.999956 -0.00525157 0)
(0.99978 -0.00568483 0)
(0.999185 -0.00605337 0)
(0.997505 -0.00623361 0)
(0.994268 -0.00614255 0)
(0.990525 -0.00579634 0)
(0.988637 -0.00536934 0)
(0.989625 -0.00499541 0)
(0.992193 -0.00465787 0)
(0.994732 -0.00435452 0)
(0.996579 -0.00409242 0)
(0.997742 -0.00387145 0)
(0.99842 -0.00368934 0)
(0.998792 -0.00354092 0)
(1.00064 -0.000596604 0)
(1.00066 -0.002122 0)
(1.00074 -0.00338304 0)
(1.00081 -0.00474973 0)
(1.00088 -0.00605358 0)
(1.00093 -0.00731914 0)
(1.00095 -0.00849089 0)
(1.00093 -0.0095316 0)
(1.00086 -0.0104093 0)
(1.00074 -0.0111099 0)
(1.00057 -0.0116442 0)
(1.0004 -0.0120488 0)
(1.00028 -0.0123122 0)
(1.00026 -0.0123131 0)
(1.00034 -0.0119049 0)
(1.00042 -0.0110657 0)
(1.00044 -0.00990478 0)
(1.00052 -0.00863663 0)
(1.00115 -0.00754666 0)
(1.00302 -0.00690971 0)
(1.00585 -0.00692722 0)
(1.00768 -0.00734193 0)
(1.00694 -0.00770933 0)
(1.00447 -0.00795827 0)
(1.00193 -0.00811536 0)
(1.00011 -0.00818896 0)
(0.999006 -0.00820014 0)
(0.998383 -0.00816524 0)
(0.99804 -0.00809896 0)
(1.00181 -0.000940846 0)
(1.0019 -0.00331994 0)
(1.00208 -0.00527926 0)
(1.00226 -0.00740707 0)
(1.00244 -0.00942452 0)
(1.00256 -0.0113827 0)
(1.00258 -0.0131962 0)
(1.00249 -0.0148139 0)
(1.00228 -0.0161839 0)
(1.00196 -0.0172722 0)
(1.00157 -0.0180339 0)
(1.00117 -0.0184414 0)
(1.00082 -0.0184879 0)
(1.00043 -0.018247 0)
(0.999866 -0.0179811 0)
(0.999023 -0.0179439 0)
(0.997931 -0.0181485 0)
(0.996638 -0.0183635 0)
(0.995037 -0.0182957 0)
(0.992976 -0.0176926 0)
(0.990657 -0.0163849 0)
(0.989029 -0.0146401 0)
(0.989081 -0.0130475 0)
(0.990509 -0.0117761 0)
(0.992158 -0.010723 0)
(0.993352 -0.00984831 0)
(0.994027 -0.00911686 0)
(0.994337 -0.00850191 0)
(0.994431 -0.00798532 0)
(1.00324 -0.00125624 0)
(1.0034 -0.00440227 0)
(1.0037 -0.00698751 0)
(1.00401 -0.00980156 0)
(1.00431 -0.0124604 0)
(1.0045 -0.0150499 0)
(1.00455 -0.0174549 0)
(1.00439 -0.0196084 0)
(1.00402 -0.0214236 0)
(1.00346 -0.0228379 0)
(1.00273 -0.0238057 0)
(1.00185 -0.0243466 0)
(1.00084 -0.0246092 0)
(0.999726 -0.0247517 0)
(0.998602 -0.0247631 0)
(0.997598 -0.0243994 0)
(0.996674 -0.0234497 0)
(0.995624 -0.0221003 0)
(0.994483 -0.0206686 0)
(0.993944 -0.0193523 0)
(0.994749 -0.0183796 0)
(0.996181 -0.0177982 0)
(0.996514 -0.0172662 0)
(0.995264 -0.016642 0)
(0.993419 -0.0160576 0)
(0.991834 -0.0155328 0)
(0.990695 -0.0150497 0)
(0.9899 -0.014601 0)
(0.989331 -0.0141837 0)
(1.00475 -0.00154701 0)
(1.00499 -0.00539157 0)
(1.00542 -0.00854929 0)
(1.00588 -0.0119943 0)
(1.00632 -0.0152475 0)
(1.00662 -0.0184356 0)
(1.0067 -0.0214168 0)
(1.00648 -0.0241177 0)
(1.00593 -0.0264341 0)
(1.00503 -0.0283002 0)
(1.00381 -0.0296918 0)
(1.00233 -0.0306087 0)
(1.00074 -0.0310462 0)
(0.999225 -0.030942 0)
(0.997868 -0.0302511 0)
(0.996579 -0.0292355 0)
(0.995094 -0.028428 0)
(0.993153 -0.0279915 0)
(0.990583 -0.0276568 0)
(0.987418 -0.0271866 0)
(0.98394 -0.0263362 0)
(0.980807 -0.0249696 0)
(0.979175 -0.0234046 0)
(0.979494 -0.0219367 0)
(0.980772 -0.0205192 0)
(0.981926 -0.0191785 0)
(0.982638 -0.0179807 0)
(0.982992 -0.0169443 0)
(0.983131 -0.0160664 0)
(1.00633 -0.00180861 0)
(1.00664 -0.00627686 0)
(1.00721 -0.00995153 0)
(1.00784 -0.0139725 0)
(1.00845 -0.0177798 0)
(1.00888 -0.0215464 0)
(1.00902 -0.0251124 0)
(1.00878 -0.0284098 0)
(1.00808 -0.0313235 0)
(1.00691 -0.0337627 0)
(1.00533 -0.0356472 0)
(1.00345 -0.0368927 0)
(1.0014 -0.0374385 0)
(0.999241 -0.0373502 0)
(0.996951 -0.0368269 0)
(0.994568 -0.0360202 0)
(0.992226 -0.0347515 0)
(0.990015 -0.032821 0)
(0.988017 -0.0305701 0)
(0.986687 -0.0285671 0)
(0.986503 -0.027086 0)
(0.986967 -0.0261515 0)
(0.986598 -0.0254054 0)
(0.984567 -0.0245155 0)
(0.981758 -0.0236173 0)
(0.979378 -0.0227942 0)
(0.977742 -0.0220051 0)
(0.976659 -0.0212435 0)
(0.975916 -0.0205163 0)
(1.00797 -0.00203449 0)
(1.00837 -0.00703835 0)
(1.00909 -0.0111662 0)
(1.00989 -0.0157024 0)
(1.01069 -0.0200214 0)
(1.01128 -0.0243444 0)
(1.01155 -0.0284996 0)
(1.01135 -0.0324242 0)
(1.01059 -0.0359832 0)
(1.00926 -0.0390529 0)
(1.00737 -0.041516 0)
(1.00499 -0.0432989 0)
(1.00218 -0.0443994 0)
(0.999049 -0.0448577 0)
(0.995779 -0.0446167 0)
(0.992582 -0.0436056 0)
(0.989553 -0.0420774 0)
(0.98665 -0.0406025 0)
(0.983882 -0.0395324 0)
(0.980985 -0.0386981 0)
(0.977218 -0.0376822 0)
(0.972525 -0.0361806 0)
(0.968537 -0.0343498 0)
(0.966897 -0.0325513 0)
(0.967082 -0.0307615 0)
(0.96756 -0.0289452 0)
(0.967713 -0.0272395 0)
(0.967607 -0.0257129 0)
(0.96738 -0.024381 0)
(1.00964 -0.00222102 0)
(1.01014 -0.00766527 0)
(1.011 -0.0121775 0)
(1.012 -0.0171631 0)
(1.01301 -0.0219458 0)
(1.01382 -0.0267948 0)
(1.01427 -0.0315302 0)
(1.01417 -0.0360997 0)
(1.01343 -0.0403596 0)
(1.01194 -0.0441844 0)
(1.0097 -0.0474547 0)
(1.00673 -0.0500781 0)
(1.00319 -0.0519606 0)
(0.999259 -0.0529941 0)
(0.995113 -0.0531323 0)
(0.990808 -0.0525302 0)
(0.986526 -0.0514269 0)
(0.982721 -0.0497652 0)
(0.979846 -0.0473442 0)
(0.977999 -0.0444536 0)
(0.977148 -0.0417259 0)
(0.976974 -0.0395921 0)
(0.976065 -0.0379184 0)
(0.972971 -0.0362915 0)
(0.968435 -0.034744 0)
(0.964413 -0.0334142 0)
(0.961597 -0.0321908 0)
(0.959677 -0.0310148 0)
(0.958314 -0.0298927 0)
(1.01128 -0.00236924 0)
(1.01189 -0.00816176 0)
(1.01291 -0.0129904 0)
(1.01412 -0.018359 0)
(1.01537 -0.0235541 0)
(1.01643 -0.0288914 0)
(1.0171 -0.03419 0)
(1.01718 -0.0394171 0)
(1.01652 -0.0444348 0)
(1.01499 -0.0491207 0)
(1.01256 -0.0533284 0)
(1.00928 -0.0568988 0)
(1.00529 -0.0596781 0)
(1.00068 -0.0615921 0)
(0.99556 -0.0626771 0)
(0.990113 -0.0629453 0)
(0.984749 -0.0623784 0)
(0.979911 -0.0611965 0)
(0.975702 -0.0598897 0)
(0.971684 -0.058699 0)
(0.966845 -0.0573026 0)
(0.960569 -0.0552794 0)
(0.954354 -0.0527219 0)
(0.950842 -0.0501553 0)
(0.950131 -0.0476837 0)
(0.949997 -0.0451504 0)
(0.949369 -0.0427269 0)
(0.948476 -0.0405485 0)
(0.947566 -0.0386305 0)
(1.01287 -0.00248394 0)
(1.01357 -0.00854396 0)
(1.01476 -0.0136273 0)
(1.01619 -0.0193168 0)
(1.0177 -0.0248723 0)
(1.01903 -0.030654 0)
(1.01998 -0.0364845 0)
(1.02032 -0.0423532 0)
(1.01986 -0.0481277 0)
(1.01848 -0.0536824 0)
(1.0161 -0.0588508 0)
(1.01271 -0.0634606 0)
(1.00834 -0.067368 0)
(1.00309 -0.0704698 0)
(0.997137 -0.0726621 0)
(0.990779 -0.0738307 0)
(0.984306 -0.0739864 0)
(0.978102 -0.0732335 0)
(0.972658 -0.0714454 0)
(0.968376 -0.0685095 0)
(0.965464 -0.0649529 0)
(0.963931 -0.0616921 0)
(0.962476 -0.0591145 0)
(0.958641 -0.0567646 0)
(0.952321 -0.054459 0)
(0.94631 -0.0524908 0)
(0.942067 -0.0507502 0)
(0.9391 -0.0490754 0)
(0.936893 -0.0474817 0)
(1.01436 -0.00257145 0)
(1.01517 -0.00883308 0)
(1.01652 -0.0141187 0)
(1.01817 -0.0200734 0)
(1.01995 -0.0259378 0)
(1.02158 -0.0321135 0)
(1.02286 -0.0384277 0)
(1.02352 -0.0448908 0)
(1.02338 -0.0513797 0)
(1.02225 -0.0577818 0)
(1.02 -0.0639461 0)
(1.01655 -0.069713 0)
(1.0119 -0.0749065 0)
(1.00617 -0.0793251 0)
(0.999545 -0.0827898 0)
(0.992224 -0.0852261 0)
(0.984481 -0.0866104 0)
(0.976793 -0.0869747 0)
(0.969634 -0.0865881 0)
(0.96296 -0.0858763 0)
(0.955871 -0.084897 0)
(0.94733 -0.0831188 0)
(0.938325 -0.0802141 0)
(0.932242 -0.0768583 0)
(0.930355 -0.0736499 0)
(0.929702 -0.0703486 0)
(0.928187 -0.0670701 0)
(0.92628 -0.0641148 0)
(0.924461 -0.061499 0)
(1.01574 -0.00263787 0)
(1.01665 -0.00904961 0)
(1.01816 -0.0144943 0)
(1.02003 -0.0206656 0)
(1.02209 -0.0267897 0)
(1.02405 -0.033306 0)
(1.02568 -0.0400476 0)
(1.02671 -0.0470467 0)
(1.02694 -0.0541988 0)
(1.02613 -0.0614201 0)
(1.02411 -0.0685817 0)
(1.0208 -0.0755227 0)
(1.01616 -0.0820283 0)
(1.01025 -0.087863 0)
(1.00316 -0.0928248 0)
(0.995063 -0.0967387 0)
(0.986312 -0.0994025 0)
(0.977379 -0.100667 0)
(0.968843 -0.100418 0)
(0.961246 -0.0985144 0)
(0.955007 -0.0951851 0)
(0.950686 -0.0913933 0)
(0.94776 -0.0882575 0)
(0.943095 -0.08565 0)
(0.93483 -0.0828569 0)
(0.926134 -0.0802361 0)
(0.919947 -0.0779592 0)
(0.915629 -0.0756971 0)
(0.912291 -0.0734854 0)
(1.01701 -0.00268821 0)
(1.01802 -0.00921047 0)
(1.01969 -0.0147793 0)
(1.02178 -0.0211255 0)
(1.02412 -0.0274639 0)
(1.02641 -0.0342688 0)
(1.0284 -0.0413802 0)
(1.02984 -0.0488522 0)
(1.03048 -0.0566008 0)
(1.0301 -0.06457 0)
(1.02851 -0.0726482 0)
(1.0256 -0.0806872 0)
(1.02125 -0.0884871 0)
(1.0154 -0.0958161 0)
(1.00807 -0.102411 0)
(0.999417 -0.107981 0)
(0.989708 -0.112282 0)
(0.979358 -0.115218 0)
(0.968929 -0.11694 0)
(0.958733 -0.117913 0)
(0.948332 -0.118453 0)
(0.936676 -0.118045 0)
(0.923933 -0.115756 0)
(0.91366 -0.111888 0)
(0.90913 -0.107852 0)
(0.907524 -0.103802 0)
(0.904808 -0.0995177 0)
(0.901374 -0.0955702 0)
(0.898229 -0.092081 0)
(1.01817 -0.00272638 0)
(1.01927 -0.00932873 0)
(1.0211 -0.0149934 0)
(1.02341 -0.0214793 0)
(1.02602 -0.0279914 0)
(1.02864 -0.0350367 0)
(1.03101 -0.042461 0)
(1.03287 -0.0503364 0)
(1.03398 -0.0585963 0)
(1.03413 -0.06721 0)
(1.03309 -0.0760948 0)
(1.0307 -0.0851466 0)
(1.02676 -0.0942102 0)
(1.02114 -0.103059 0)
(1.01379 -0.111388 0)
(1.00477 -0.11886 0)
(0.994283 -0.125152 0)
(0.982823 -0.129972 0)
(0.971085 -0.13298 0)
(0.959732 -0.133699 0)
(0.949295 -0.131893 0)
(0.940634 -0.128347 0)
(0.934507 -0.12485 0)
(0.928373 -0.122352 0)
(0.918044 -0.119681 0)
(0.905505 -0.116503 0)
(0.896052 -0.113649 0)
(0.889667 -0.110751 0)
(0.884615 -0.107712 0)
(1.01923 -0.00275529 0)
(1.02042 -0.00941429 0)
(1.02239 -0.0151522 0)
(1.02491 -0.0217484 0)
(1.02779 -0.0283986 0)
(1.03073 -0.0356406 0)
(1.03347 -0.0433233 0)
(1.03576 -0.0515327 0)
(1.03737 -0.0602181 0)
(1.03805 -0.0693772 0)
(1.0376 -0.0789675 0)
(1.03578 -0.0889373 0)
(1.03239 -0.0991778 0)
(1.02725 -0.109487 0)
(1.02021 -0.119569 0)
(1.0112 -0.129051 0)
(1.00037 -0.137507 0)
(0.98812 -0.144541 0)
(0.974975 -0.149918 0)
(0.96127 -0.153862 0)
(0.946886 -0.157065 0)
(0.931266 -0.15948 0)
(0.914046 -0.159554 0)
(0.897787 -0.156216 0)
(0.88787 -0.151292 0)
(0.883964 -0.146444 0)
(0.879677 -0.141065 0)
(0.873884 -0.135715 0)
(0.868667 -0.131016 0)
(1.0202 -0.0027771 0)
(1.02146 -0.00947461 0)
(1.02358 -0.0152675 0)
(1.02629 -0.0219497 0)
(1.02942 -0.0287077 0)
(1.03267 -0.0361081 0)
(1.03577 -0.0440011 0)
(1.03848 -0.0524832 0)
(1.04056 -0.0615192 0)
(1.04178 -0.0711341 0)
(1.04193 -0.0813218 0)
(1.0408 -0.0920762 0)
(1.03817 -0.103342 0)
(1.03379 -0.114978 0)
(1.02739 -0.126739 0)
(1.01879 -0.138257 0)
(1.00797 -0.149075 0)
(0.995195 -0.158725 0)
(0.980995 -0.166704 0)
(0.965999 -0.172285 0)
(0.950924 -0.174522 0)
(0.936811 -0.17315 0)
(0.92534 -0.169936 0)
(0.916122 -0.16773 0)
(0.903696 -0.166136 0)
(0.886299 -0.162988 0)
(0.871117 -0.15941 0)
(0.861134 -0.155861 0)
(0.853316 -0.151702 0)
(1.02108 -0.00279335 0)
(1.02241 -0.00951518 0)
(1.02466 -0.0153484 0)
(1.02755 -0.0220966 0)
(1.03092 -0.028937 0)
(1.03446 -0.036464 0)
(1.0379 -0.0445264 0)
(1.04101 -0.0532285 0)
(1.04355 -0.0625484 0)
(1.04531 -0.0725303 0)
(1.04611 -0.0831949 0)
(1.04576 -0.0945802 0)
(1.04401 -0.1067 0)
(1.04056 -0.1195 0)
(1.03505 -0.132819 0)
(1.02714 -0.146343 0)
(1.01669 -0.159601 0)
(1.00386 -0.172024 0)
(0.989069 -0.183001 0)
(0.972602 -0.192093 0)
(0.954363 -0.199704 0)
(0.934143 -0.206635 0)
(0.911777 -0.211713 0)
(0.888228 -0.211731 0)
(0.869272 -0.206816 0)
(0.859643 -0.200993 0)
(0.852982 -0.194768 0)
(0.843697 -0.187554 0)
(0.834857 -0.180998 0)
(1.02188 -0.00280518 0)
(1.02328 -0.00954016 0)
(1.02565 -0.015402 0)
(1.02871 -0.0222 0)
(1.0323 -0.0291022 0)
(1.03611 -0.0367293 0)
(1.03988 -0.0449265 0)
(1.04336 -0.0538032 0)
(1.04635 -0.0633463 0)
(1.04865 -0.0736115 0)
(1.0501 -0.0846411 0)
(1.05053 -0.0965189 0)
(1.04968 -0.109333 0)
(1.04724 -0.123121 0)
(1.04278 -0.137819 0)
(1.03589 -0.153197 0)
(1.02628 -0.168812 0)
(1.01393 -0.184088 0)
(0.999088 -0.198422 0)
(0.981943 -0.211004 0)
(0.962826 -0.22047 0)
(0.942971 -0.2251 0)
(0.924479 -0.224822 0)
(0.909269 -0.223288 0)
(0.893783 -0.223754 0)
(0.871365 -0.222768 0)
(0.847007 -0.218755 0)
(0.829936 -0.214478 0)
(0.817472 -0.209079 0)
(1.02261 -0.00281344 0)
(1.02407 -0.00955275 0)
(1.02656 -0.0154339 0)
(1.02977 -0.0222682 0)
(1.03357 -0.0292158 0)
(1.03763 -0.0369215 0)
(1.0417 -0.0452241 0)
(1.04554 -0.0542369 0)
(1.04895 -0.0639519 0)
(1.05176 -0.0744315 0)
(1.05382 -0.0857359 0)
(1.05497 -0.0979881 0)
(1.05502 -0.11134 0)
(1.05365 -0.125914 0)
(1.05043 -0.14175 0)
(1.04487 -0.158737 0)
(1.03652 -0.176521 0)
(1.02517 -0.194589 0)
(1.01093 -0.212345 0)
(0.993709 -0.228953 0)
(0.973064 -0.243691 0)
(0.948777 -0.257218 0)
(0.921094 -0.270121 0)
(0.890105 -0.278783 0)
(0.859 -0.278151 0)
(0.837247 -0.271707 0)
(0.825187 -0.265072 0)
(0.811361 -0.25646 0)
(0.796045 -0.247132 0)
(1.02328 -0.0028188 0)
(1.0248 -0.0095556 0)
(1.02739 -0.0154488 0)
(1.03074 -0.0223084 0)
(1.03474 -0.0292885 0)
(1.03903 -0.0370554 0)
(1.04337 -0.045439 0)
(1.04754 -0.0545572 0)
(1.05134 -0.064404 0)
(1.05461 -0.0750444 0)
(1.05722 -0.0865498 0)
(1.05907 -0.0990689 0)
(1.06002 -0.112803 0)
(1.05978 -0.127955 0)
(1.05792 -0.144676 0)
(1.05388 -0.162991 0)
(1.04707 -0.18269 0)
(1.03719 -0.203364 0)
(1.02417 -0.224536 0)
(1.00763 -0.245444 0)
(0.986936 -0.264674 0)
(0.962753 -0.279874 0)
(0.937317 -0.288237 0)
(0.913229 -0.290441 0)
(0.891634 -0.293405 0)
(0.86493 -0.298206 0)
(0.829135 -0.297055 0)
(0.798153 -0.292102 0)
(0.777187 -0.286081 0)
(1.02388 -0.00282183 0)
(1.02545 -0.0095509 0)
(1.02814 -0.0154505 0)
(1.03162 -0.0223266 0)
(1.0358 -0.029329 0)
(1.0403 -0.0371432 0)
(1.0449 -0.0455885 0)
(1.04937 -0.0547882 0)
(1.05352 -0.0647355 0)
(1.0572 -0.0754931 0)
(1.06034 -0.0871354 0)
(1.06287 -0.0998259 0)
(1.06469 -0.113804 0)
(1.06557 -0.129349 0)
(1.06508 -0.146719 0)
(1.06262 -0.166075 0)
(1.05758 -0.187366 0)
(1.04957 -0.210344 0)
(1.03839 -0.234676 0)
(1.02339 -0.259687 0)
(1.00337 -0.284083 0)
(0.977682 -0.307106 0)
(0.946295 -0.330187 0)
(0.909094 -0.352809 0)
(0.866147 -0.366129 0)
(0.825287 -0.364282 0)
(0.798968 -0.357363 0)
(0.779062 -0.34973 0)
(0.754005 -0.337599 0)
(1.02443 -0.00282302 0)
(1.02605 -0.00954053 0)
(1.02882 -0.0154424 0)
(1.03242 -0.022328 0)
(1.03676 -0.0293449 0)
(1.04145 -0.0371953 0)
(1.04628 -0.0456868 0)
(1.05103 -0.0549494 0)
(1.0555 -0.0649718 0)
(1.05958 -0.0758103 0)
(1.0632 -0.0875371 0)
(1.06636 -0.100323 0)
(1.06899 -0.114436 0)
(1.07092 -0.13022 0)
(1.07174 -0.148026 0)
(1.0709 -0.168134 0)
(1.06778 -0.19066 0)
(1.06197 -0.21556 0)
(1.05313 -0.24268 0)
(1.04032 -0.271578 0)
(1.02202 -0.30123 0)
(0.997587 -0.329751 0)
(0.968368 -0.353546 0)
(0.936449 -0.367928 0)
(0.904512 -0.375401 0)
(0.872007 -0.387854 0)
(0.827179 -0.39892 0)
(0.774186 -0.396681 0)
(0.734843 -0.390696 0)
(1.02492 -0.00282277 0)
(1.02658 -0.00952603 0)
(1.02943 -0.0154271 0)
(1.03313 -0.0223167 0)
(1.03763 -0.029342 0)
(1.04248 -0.0372199 0)
(1.04754 -0.0457453 0)
(1.05254 -0.0550558 0)
(1.0573 -0.0651329 0)
(1.06173 -0.0760242 0)
(1.0658 -0.0877962 0)
(1.06951 -0.100622 0)
(1.07287 -0.114786 0)
(1.07576 -0.13068 0)
(1.07786 -0.148729 0)
(1.07863 -0.169321 0)
(1.07748 -0.192731 0)
(1.07406 -0.219141 0)
(1.06792 -0.248599 0)
(1.05789 -0.280847 0)
(1.04234 -0.315128 0)
(1.01995 -0.350059 0)
(0.989478 -0.38532 0)
(0.950076 -0.423742 0)
(0.900493 -0.462597 0)
(0.84021 -0.482943 0)
(0.784985 -0.479826 0)
(0.749209 -0.474499 0)
(0.713386 -0.464223 0)
(1.02536 -0.00282146 0)
(1.02706 -0.00950875 0)
(1.02998 -0.0154069 0)
(1.03377 -0.0222964 0)
(1.03841 -0.0293256 0)
(1.04342 -0.0372237 0)
(1.04867 -0.0457735 0)
(1.05389 -0.0551202 0)
(1.05893 -0.0652361 0)
(1.06367 -0.07616 0)
(1.06813 -0.0879496 0)
(1.07234 -0.100773 0)
(1.07635 -0.114923 0)
(1.08013 -0.13082 0)
(1.08343 -0.148952 0)
(1.08575 -0.169801 0)
(1.08655 -0.193784 0)
(1.08556 -0.221292 0)
(1.08234 -0.25259 0)
(1.07552 -0.287586 0)
(1.06333 -0.325976 0)
(1.04438 -0.367132 0)
(1.01758 -0.408863 0)
(0.983623 -0.445565 0)
(0.943818 -0.469613 0)
(0.900902 -0.488239 0)
(0.850517 -0.51993 0)
(0.776257 -0.539181 0)
(0.698386 -0.53367 0)
(1.02575 -0.00281937 0)
(1.02748 -0.00948978 0)
(1.03047 -0.0153833 0)
(1.03434 -0.0222698 0)
(1.03911 -0.0292997 0)
(1.04425 -0.0372124 0)
(1.04968 -0.0457791 0)
(1.05511 -0.0551531 0)
(1.06038 -0.065296 0)
(1.06541 -0.076238 0)
(1.0702 -0.0880252 0)
(1.07485 -0.100816 0)
(1.07946 -0.114902 0)
(1.08406 -0.130721 0)
(1.08846 -0.14881 0)
(1.09223 -0.169733 0)
(1.09489 -0.194028 0)
(1.09627 -0.222246 0)
(1.09605 -0.254873 0)
(1.09272 -0.292021 0)
(1.08439 -0.333633 0)
(1.07 -0.379641 0)
(1.04756 -0.429013 0)
(1.01304 -0.481998 0)
(0.965121 -0.545325 0)
(0.900753 -0.613799 0)
(0.813164 -0.646987 0)
(0.730264 -0.643184 0)
(0.673272 -0.64093 0)
(1.02609 -0.00281675 0)
(1.02786 -0.00947002 0)
(1.0309 -0.0153579 0)
(1.03485 -0.0222393 0)
(1.03973 -0.0292677 0)
(1.04499 -0.0371905 0)
(1.05059 -0.0457687 0)
(1.05619 -0.0551629 0)
(1.06168 -0.065324 0)
(1.06695 -0.0762737 0)
(1.07205 -0.0880443 0)
(1.07709 -0.100781 0)
(1.08223 -0.114768 0)
(1.08755 -0.130453 0)
(1.09294 -0.148407 0)
(1.09803 -0.169263 0)
(1.10244 -0.193655 0)
(1.1061 -0.22226 0)
(1.10878 -0.255734 0)
(1.10907 -0.29443 0)
(1.10492 -0.338476 0)
(1.09534 -0.388355 0)
(1.07901 -0.444708 0)
(1.05266 -0.505491 0)
(1.01507 -0.561807 0)
(0.96648 -0.601181 0)
(0.909423 -0.644961 0)
(0.826556 -0.719428 0)
(0.693643 -0.744505 0)
(1.0264 -0.00281379 0)
(1.0282 -0.00945017 0)
(1.03129 -0.0153318 0)
(1.03531 -0.0222067 0)
(1.04028 -0.0292319 0)
(1.04565 -0.0371616 0)
(1.05139 -0.0457471 0)
(1.05716 -0.0551564 0)
(1.06283 -0.065329 0)
(1.06833 -0.076279 0)
(1.07369 -0.0880233 0)
(1.07908 -0.100693 0)
(1.08468 -0.114559 0)
(1.09063 -0.130074 0)
(1.0969 -0.14783 0)
(1.10318 -0.168509 0)
(1.10921 -0.19283 0)
(1.11499 -0.221567 0)
(1.12039 -0.255474 0)
(1.12418 -0.29513 0)
(1.12445 -0.34094 0)
(1.11996 -0.393453 0)
(1.11043 -0.454021 0)
(1.09263 -0.523209 0)
(1.05646 -0.601287 0)
(1.00147 -0.704595 0)
(0.927468 -0.836146 0)
(0.789802 -0.905907 0)
(0.621669 -0.896695 0)
(1.02667 -0.00281066 0)
(1.02849 -0.00943078 0)
(1.03163 -0.0153058 0)
(1.03571 -0.0221735 0)
(1.04076 -0.0291946 0)
(1.04624 -0.0371284 0)
(1.0521 -0.0457184 0)
(1.05801 -0.0551387 0)
(1.06386 -0.065318 0)
(1.06955 -0.0762631 0)
(1.07514 -0.0879759 0)
(1.08082 -0.100571 0)
(1.08682 -0.114306 0)
(1.09333 -0.129629 0)
(1.10036 -0.147146 0)
(1.10772 -0.167574 0)
(1.1152 -0.191698 0)
(1.12295 -0.220376 0)
(1.13085 -0.254413 0)
(1.13783 -0.294499 0)
(1.14247 -0.341392 0)
(1.1434 -0.395702 0)
(1.14001 -0.458836 0)
(1.13183 -0.534927 0)
(1.11337 -0.624419 0)
(1.07885 -0.709901 0)
(1.02352 -0.773198 0)
(0.949468 -0.885866 0)
(0.781555 -1.06464 0)
(1.02691 -0.00280746 0)
(1.02876 -0.00941222 0)
(1.03193 -0.0152805 0)
(1.03606 -0.0221407 0)
(1.04119 -0.0291571 0)
(1.04676 -0.0370932 0)
(1.05274 -0.0456855 0)
(1.05877 -0.0551135 0)
(1.06476 -0.0652962 0)
(1.07062 -0.0762334 0)
(1.07642 -0.087912 0)
(1.08235 -0.10043 0)
(1.08869 -0.114031 0)
(1.09568 -0.129152 0)
(1.10339 -0.146405 0)
(1.11168 -0.166537 0)
(1.12046 -0.190378 0)
(1.12997 -0.218849 0)
(1.14016 -0.252799 0)
(1.15001 -0.29292 0)
(1.15861 -0.340214 0)
(1.16503 -0.395651 0)
(1.16786 -0.460133 0)
(1.16897 -0.538097 0)
(1.16673 -0.633872 0)
(1.13912 -0.740883 0)
(1.08554 -0.899092 0)
(1.02425 -1.18888 0)
(0.734145 -1.31977 0)
(0.998977 -0.00341825 0)
(0.99905 -0.00330516 0)
(0.999028 -0.00318954 0)
(0.998907 -0.00306943 0)
(0.998675 -0.00294257 0)
(0.998314 -0.00280618 0)
(0.9978 -0.00265753 0)
(0.997107 -0.00249429 0)
(0.996212 -0.00231507 0)
(0.995099 -0.00211994 0)
(0.993771 -0.00191101 0)
(0.992246 -0.00169284 0)
(0.990571 -0.00147253 0)
(0.98882 -0.00125937 0)
(0.987092 -0.00106405 0)
(0.985505 -0.00089737 0)
(0.984186 -0.000768612 0)
(0.983252 -0.000683886 0)
(0.982798 -0.000644741 0)
(0.997846 -0.00801648 0)
(0.997725 -0.00792642 0)
(0.997645 -0.00783067 0)
(0.997598 -0.00773259 0)
(0.997587 -0.00763412 0)
(0.997627 -0.00753805 0)
(0.997748 -0.00744773 0)
(0.997992 -0.00736666 0)
(0.998412 -0.00729791 0)
(0.99907 -0.00724332 0)
(1.00002 -0.00720248 0)
(1.00131 -0.00717163 0)
(1.00295 -0.00714289 0)
(1.00492 -0.00710397 0)
(1.00713 -0.0070388 0)
(1.00946 -0.00692919 0)
(1.01172 -0.00675754 0)
(1.0137 -0.00651024 0)
(1.01519 -0.00618107 0)
(0.994407 -0.00754504 0)
(0.994316 -0.00713146 0)
(0.99417 -0.00670734 0)
(0.993976 -0.00627295 0)
(0.993738 -0.00583029 0)
(0.993453 -0.00538114 0)
(0.99311 -0.00492746 0)
(0.992686 -0.00447148 0)
(0.992149 -0.00401561 0)
(0.991452 -0.00356268 0)
(0.990541 -0.00311634 0)
(0.989358 -0.00268174 0)
(0.987857 -0.00226621 0)
(0.986015 -0.00187985 0)
(0.983853 -0.00153537 0)
(0.981456 -0.00124726 0)
(0.978972 -0.00102965 0)
(0.976616 -0.000893283 0)
(0.974641 -0.000842117 0)
(0.988906 -0.013801 0)
(0.988558 -0.0134376 0)
(0.988257 -0.013078 0)
(0.98801 -0.0127247 0)
(0.987832 -0.0123779 0)
(0.987745 -0.0120386 0)
(0.987783 -0.0117079 0)
(0.987988 -0.0113872 0)
(0.988412 -0.0110778 0)
(0.989117 -0.0107803 0)
(0.990169 -0.010494 0)
(0.991632 -0.0102158 0)
(0.993555 -0.00993901 0)
(0.995953 -0.00965216 0)
(0.998789 -0.00933834 0)
(1.00195 -0.00897559 0)
(1.00524 -0.00853888 0)
(1.00838 -0.00800383 0)
(1.01105 -0.00735184 0)
(0.983154 -0.0153211 0)
(0.983118 -0.01463 0)
(0.983042 -0.0139334 0)
(0.98294 -0.0132303 0)
(0.982823 -0.0125204 0)
(0.982692 -0.0118011 0)
(0.982542 -0.011069 0)
(0.982354 -0.0103191 0)
(0.982091 -0.00954584 0)
(0.981696 -0.00874257 0)
(0.981088 -0.00790296 0)
(0.980165 -0.00702208 0)
(0.978812 -0.00609822 0)
(0.976923 -0.00513502 0)
(0.974425 -0.00414337 0)
(0.971321 -0.00314238 0)
(0.967718 -0.00215856 0)
(0.963855 -0.00122268 0)
(0.960095 -0.000364332 0)
(0.975373 -0.0198348 0)
(0.974924 -0.0191715 0)
(0.974515 -0.0184941 0)
(0.974134 -0.0178049 0)
(0.973777 -0.0171019 0)
(0.973444 -0.0163837 0)
(0.973145 -0.0156486 0)
(0.972898 -0.0148954 0)
(0.972736 -0.0141237 0)
(0.972706 -0.0133341 0)
(0.972878 -0.0125287 0)
(0.973345 -0.0117108 0)
(0.974215 -0.010884 0)
(0.975599 -0.0100508 0)
(0.977586 -0.00921042 0)
(0.9802 -0.00835696 0)
(0.983362 -0.00747822 0)
(0.986861 -0.00655676 0)
(0.990347 -0.00557343 0)
(0.967109 -0.0232229 0)
(0.966814 -0.0221304 0)
(0.966487 -0.0210162 0)
(0.966133 -0.0198829 0)
(0.965753 -0.0187349 0)
(0.965346 -0.0175749 0)
(0.964906 -0.0164051 0)
(0.964422 -0.0152273 0)
(0.963875 -0.0140426 0)
(0.963234 -0.0128507 0)
(0.962446 -0.0116501 0)
(0.961438 -0.0104379 0)
(0.960108 -0.0092104 0)
(0.958338 -0.00796414 0)
(0.956013 -0.00669793 0)
(0.953056 -0.00541493 0)
(0.949483 -0.00412419 0)
(0.945451 -0.0028404 0)
(0.941288 -0.00158104 0)
(0.957296 -0.0288378 0)
(0.956447 -0.0278057 0)
(0.955678 -0.0267446 0)
(0.954972 -0.0256599 0)
(0.954317 -0.0245525 0)
(0.953708 -0.0234234 0)
(0.953147 -0.0222739 0)
(0.952637 -0.0211048 0)
(0.952194 -0.0199166 0)
(0.951844 -0.0187097 0)
(0.951629 -0.0174842 0)
(0.951614 -0.0162402 0)
(0.951892 -0.0149778 0)
(0.952573 -0.0136963 0)
(0.953777 -0.0123938 0)
(0.95559 -0.0110652 0)
(0.958019 -0.00970149 0)
(0.960938 -0.00829016 0)
(0.964052 -0.00681862 0)
(0.946727 -0.0369484 0)
(0.945935 -0.03535 0)
(0.945153 -0.0337101 0)
(0.944388 -0.0320322 0)
(0.943643 -0.0303215 0)
(0.942915 -0.0285815 0)
(0.942197 -0.0268157 0)
(0.941474 -0.0250275 0)
(0.940725 -0.0232203 0)
(0.939919 -0.0213973 0)
(0.939007 -0.0195612 0)
(0.937922 -0.0177147 0)
(0.936573 -0.0158603 0)
(0.934845 -0.0140013 0)
(0.932612 -0.0121425 0)
(0.929768 -0.0102919 0)
(0.926284 -0.00846137 0)
(0.922274 -0.00666567 0)
(0.918047 -0.00491819 0)
(0.935184 -0.0459836 0)
(0.933725 -0.0445123 0)
(0.93238 -0.0429901 0)
(0.931133 -0.0414228 0)
(0.929973 -0.039811 0)
(0.928895 -0.0381564 0)
(0.927895 -0.0364612 0)
(0.926975 -0.0347282 0)
(0.926142 -0.0329603 0)
(0.925411 -0.0311606 0)
(0.924815 -0.0293325 0)
(0.924406 -0.0274791 0)
(0.924262 -0.0256031 0)
(0.924489 -0.0237052 0)
(0.92521 -0.021783 0)
(0.926534 -0.0198282 0)
(0.928502 -0.0178257 0)
(0.931014 -0.0157537 0)
(0.933775 -0.0135892 0)
(0.922828 -0.059187 0)
(0.921308 -0.0569781 0)
(0.91982 -0.0547007 0)
(0.91838 -0.0523584 0)
(0.916999 -0.049955 0)
(0.91568 -0.0474927 0)
(0.914422 -0.0449739 0)
(0.913218 -0.0424017 0)
(0.912056 -0.0397795 0)
(0.910913 -0.0371114 0)
(0.90975 -0.0344015 0)
(0.90851 -0.0316544 0)
(0.907103 -0.0288751 0)
(0.905409 -0.0260699 0)
(0.903277 -0.0232479 0)
(0.900555 -0.0204238 0)
(0.897148 -0.0176198 0)
(0.893108 -0.0148654 0)
(0.88873 -0.0121918 0)
(0.909635 -0.0713862 0)
(0.907317 -0.0693 0)
(0.905139 -0.0671171 0)
(0.903086 -0.0648478 0)
(0.901151 -0.0624971 0)
(0.89933 -0.0600718 0)
(0.897625 -0.0575792 0)
(0.896039 -0.0550272 0)
(0.894578 -0.0524234 0)
(0.893255 -0.0497753 0)
(0.892092 -0.0470897 0)
(0.89113 -0.0443729 0)
(0.890434 -0.04163 0)
(0.890103 -0.0388642 0)
(0.890268 -0.0360741 0)
(0.891067 -0.0332509 0)
(0.892589 -0.0303733 0)
(0.894779 -0.0274058 0)
(0.897336 -0.0243041 0)
(0.895434 -0.0889606 0)
(0.892843 -0.085965 0)
(0.890319 -0.0828644 0)
(0.88789 -0.0796656 0)
(0.885573 -0.0763717 0)
(0.88338 -0.0729833 0)
(0.881317 -0.0695008 0)
(0.879383 -0.0659252 0)
(0.877572 -0.0622579 0)
(0.875866 -0.058501 0)
(0.874238 -0.0546577 0)
(0.872637 -0.0507323 0)
(0.870985 -0.0467304 0)
(0.869163 -0.04266 0)
(0.867003 -0.0385339 0)
(0.864305 -0.0343733 0)
(0.860886 -0.0302144 0)
(0.856699 -0.0261114 0)
(0.851988 -0.022131 0)
(0.880547 -0.104772 0)
(0.876984 -0.101787 0)
(0.873616 -0.0986085 0)
(0.870431 -0.0952595 0)
(0.867425 -0.0917557 0)
(0.864595 -0.0881165 0)
(0.861944 -0.084362 0)
(0.859474 -0.0805127 0)
(0.857191 -0.0765893 0)
(0.855103 -0.0726117 0)
(0.853228 -0.0685994 0)
(0.851594 -0.0645707 0)
(0.850257 -0.0605422 0)
(0.849306 -0.0565275 0)
(0.848878 -0.0525343 0)
(0.849152 -0.0485593 0)
(0.850297 -0.0445782 0)
(0.852355 -0.0405361 0)
(0.855061 -0.0363468 0)
(0.864112 -0.126738 0)
(0.859895 -0.122581 0)
(0.855829 -0.118247 0)
(0.851946 -0.11374 0)
(0.848278 -0.109069 0)
(0.844849 -0.104238 0)
(0.84167 -0.0992518 0)
(0.83875 -0.0941167 0)
(0.836086 -0.0888404 0)
(0.833671 -0.0834317 0)
(0.831483 -0.0778991 0)
(0.829482 -0.0722521 0)
(0.8276 -0.0665004 0)
(0.825725 -0.060655 0)
(0.823677 -0.0547312 0)
(0.821203 -0.0487544 0)
(0.817999 -0.042773 0)
(0.813831 -0.0368716 0)
(0.80878 -0.0311787 0)
(0.84689 -0.147477 0)
(0.841316 -0.143082 0)
(0.836045 -0.138267 0)
(0.831091 -0.133109 0)
(0.826463 -0.12764 0)
(0.822164 -0.121906 0)
(0.81821 -0.115955 0)
(0.814608 -0.109835 0)
(0.811366 -0.103596 0)
(0.80849 -0.0972881 0)
(0.805986 -0.0909632 0)
(0.803869 -0.0846737 0)
(0.802171 -0.0784716 0)
(0.800958 -0.0724067 0)
(0.800352 -0.0665224 0)
(0.800554 -0.0608495 0)
(0.801831 -0.055387 0)
(0.804407 -0.0500819 0)
(0.8082 -0.044797 0)
(0.827409 -0.174982 0)
(0.820469 -0.168922 0)
(0.813852 -0.162511 0)
(0.807617 -0.155715 0)
(0.801811 -0.148571 0)
(0.796497 -0.141105 0)
(0.791701 -0.133349 0)
(0.787452 -0.125346 0)
(0.783762 -0.117143 0)
(0.780634 -0.108785 0)
(0.778057 -0.100317 0)
(0.776 -0.0917802 0)
(0.774402 -0.0832096 0)
(0.773157 -0.0746349 0)
(0.772081 -0.0660823 0)
(0.770874 -0.0575783 0)
(0.76909 -0.0491772 0)
(0.766202 -0.0409797 0)
(0.761844 -0.0331818 0)
(0.806818 -0.202834 0)
(0.797665 -0.196197 0)
(0.78905 -0.188645 0)
(0.781001 -0.180379 0)
(0.773626 -0.171481 0)
(0.766941 -0.16204 0)
(0.761014 -0.15217 0)
(0.755874 -0.141969 0)
(0.751551 -0.131551 0)
(0.74805 -0.121033 0)
(0.745373 -0.110537 0)
(0.743508 -0.100189 0)
(0.742448 -0.0901223 0)
(0.742202 -0.0804709 0)
(0.742828 -0.0713667 0)
(0.744484 -0.0629374 0)
(0.747482 -0.05526 0)
(0.752237 -0.0483574 0)
(0.759127 -0.0421016 0)
(0.783441 -0.238707 0)
(0.771728 -0.229708 0)
(0.760545 -0.219866 0)
(0.750209 -0.209164 0)
(0.740722 -0.197613 0)
(0.73228 -0.185358 0)
(0.724939 -0.172487 0)
(0.718786 -0.15915 0)
(0.713854 -0.145489 0)
(0.710179 -0.131658 0)
(0.707752 -0.117804 0)
(0.706548 -0.104065 0)
(0.706501 -0.0905622 0)
(0.707495 -0.0773947 0)
(0.709328 -0.0646373 0)
(0.71166 -0.0523189 0)
(0.713891 -0.040509 0)
(0.715218 -0.0292796 0)
(0.714382 -0.0188178 0)
(0.759245 -0.277248 0)
(0.743428 -0.267177 0)
(0.728844 -0.255392 0)
(0.715195 -0.241967 0)
(0.702953 -0.227294 0)
(0.692143 -0.211467 0)
(0.682955 -0.194752 0)
(0.67546 -0.17737 0)
(0.66975 -0.159559 0)
(0.665836 -0.141567 0)
(0.663728 -0.12365 0)
(0.663385 -0.106072 0)
(0.664745 -0.0891055 0)
(0.667727 -0.0730414 0)
(0.672268 -0.0581717 0)
(0.678375 -0.0448524 0)
(0.68634 -0.0333158 0)
(0.696483 -0.0238368 0)
(0.710011 -0.0165662 0)
(0.731545 -0.325723 0)
(0.711656 -0.312889 0)
(0.692205 -0.29758 0)
(0.674592 -0.280571 0)
(0.658676 -0.261603 0)
(0.644883 -0.241132 0)
(0.633336 -0.219418 0)
(0.624229 -0.19678 0)
(0.617593 -0.173564 0)
(0.613516 -0.150101 0)
(0.61198 -0.126723 0)
(0.61296 -0.10376 0)
(0.616373 -0.0815206 0)
(0.622086 -0.0602847 0)
(0.629868 -0.0403149 0)
(0.639375 -0.0216696 0)
(0.649676 -0.00457173 0)
(0.660102 0.0110154 0)
(0.667942 0.0251612 0)
(0.705114 -0.380391 0)
(0.677097 -0.364966 0)
(0.651946 -0.346857 0)
(0.628652 -0.32516 0)
(0.608113 -0.300966 0)
(0.590507 -0.274652 0)
(0.576146 -0.246638 0)
(0.565033 -0.217476 0)
(0.557374 -0.187578 0)
(0.553104 -0.157388 0)
(0.55227 -0.12734 0)
(0.554821 -0.097861 0)
(0.560692 -0.0694108 0)
(0.569769 -0.0425053 0)
(0.581928 -0.0176445 0)
(0.596852 0.00428225 0)
(0.615146 0.0228633 0)
(0.636039 0.0370529 0)
(0.662251 0.0456831 0)
(0.672948 -0.446462 0)
(0.6384 -0.428484 0)
(0.605145 -0.40461 0)
(0.575226 -0.376904 0)
(0.549189 -0.345919 0)
(0.527397 -0.312044 0)