/*--------------------------------*- C++ -*----------------------------------*\
  =========                 |
  \\      /  F ield         | OpenFOAM: The Open Source CFD Toolbox
   \\    /   O peration     | Website:  https://openfoam.org
    \\  /    A nd           | Version:  10
     \\/     M anipulation  |
\*---------------------------------------------------------------------------*/
FoamFile
{
    format      ascii;
    class       volVectorField;
    location    "0";
    object      U;
}
// * * * * * * * * * * * * * * * * * * * * * * * * * * * * * * * * * * * * * //

dimensions      [0 1 -1 0 0 0 0];

internalField   nonuniform List<vector> 
18483
(
(1 -0.000189517 0)
(1 -0.000676472 0)
(1 -0.00107404 0)
(0.999999 -0.0014975 0)
(0.999998 -0.00189581 0)
(0.999996 -0.00227576 0)
(0.999994 -0.00262109 0)
(0.999992 -0.00292082 0)
(0.999989 -0.00316537 0)
(0.999985 -0.00334874 0)
(0.999979 -0.00346972 0)
(0.99997 -0.00353216 0)
(0.999954 -0.00354504 0)
(0.999924 -0.00354499 0)
(0.999872 -0.00357586 0)
(0.999786 -0.00366935 0)
(0.999647 -0.00378258 0)
(0.999353 -0.00381652 0)
(0.998603 -0.00369226 0)
(0.996945 -0.00335448 0)
(0.994426 -0.00286329 0)
(0.992213 -0.00241947 0)
(0.991647 -0.00212951 0)
(0.992749 -0.00191921 0)
(0.994522 -0.00172206 0)
(0.996155 -0.00152815 0)
(0.997374 -0.00134433 0)
(0.998204 -0.00117753 0)
(0.998747 -0.00103043 0)
(1.00059 -0.000542414 0)
(1.0006 -0.00192696 0)
(1.00066 -0.0030664 0)
(1.00071 -0.00429555 0)
(1.00076 -0.00546389 0)
(1.00078 -0.00659744 0)
(1.00078 -0.00764764 0)
(1.00074 -0.00858368 0)
(1.00067 -0.00937571 0)
(1.00055 -0.0100076 0)
(1.0004 -0.0104797 0)
(1.00022 -0.0108287 0)
(1.00007 -0.0110919 0)
(0.999948 -0.01123 0)
(0.999885 -0.0111753 0)
(0.999821 -0.0108556 0)
(0.999649 -0.010325 0)
(0.999332 -0.0097626 0)
(0.999092 -0.00929268 0)
(0.99965 -0.00901051 0)
(1.00173 -0.00890802 0)
(1.00453 -0.00873707 0)
(1.00593 -0.00835417 0)
(1.00509 -0.00795186 0)
(1.00311 -0.00766821 0)
(1.00116 -0.00747929 0)
(0.99967 -0.00733727 0)
(0.998627 -0.00721199 0)
(0.997904 -0.00709147 0)
(1.00165 -0.000840662 0)
(1.00173 -0.00297508 0)
(1.00188 -0.00474763 0)
(1.00204 -0.00668431 0)
(1.0022 -0.00854766 0)
(1.00231 -0.0103887 0)
(1.00234 -0.012128 0)
(1.00227 -0.0137158 0)
(1.0021 -0.0150953 0)
(1.00182 -0.0162315 0)
(1.00147 -0.0171004 0)
(1.00109 -0.0176813 0)
(1.00076 -0.0179653 0)
(1.00052 -0.017966 0)
(1.00028 -0.0178165 0)
(0.999965 -0.0177753 0)
(0.999527 -0.0179422 0)
(0.998858 -0.0181739 0)
(0.99755 -0.0182923 0)
(0.994961 -0.0181869 0)
(0.990909 -0.0178541 0)
(0.98671 -0.0175003 0)
(0.984769 -0.0173012 0)
(0.985859 -0.0170818 0)
(0.988364 -0.0166896 0)
(0.99067 -0.0162096 0)
(0.992294 -0.0157442 0)
(0.993331 -0.0153394 0)
(0.993973 -0.0150069 0)
(1.00292 -0.00108598 0)
(1.00307 -0.00383161 0)
(1.00335 -0.0061309 0)
(1.00366 -0.00867507 0)
(1.00397 -0.0111549 0)
(1.0042 -0.0136481 0)
(1.0043 -0.0160508 0)
(1.00422 -0.0182951 0)
(1.00394 -0.0202923 0)
(1.00347 -0.0219715 0)
(1.00283 -0.0232701 0)
(1.00206 -0.0241441 0)
(1.00121 -0.0246253 0)
(1.00027 -0.0248399 0)
(0.999293 -0.0248859 0)
(0.998334 -0.0246125 0)
(0.997457 -0.0237771 0)
(0.996654 -0.0224839 0)
(0.996228 -0.0211371 0)
(0.997182 -0.0200736 0)
(1.00038 -0.0194071 0)
(1.00443 -0.0189007 0)
(1.006 -0.018257 0)
(1.00383 -0.0176164 0)
(1.00007 -0.0171943 0)
(0.996857 -0.0169197 0)
(0.994711 -0.0166758 0)
(0.993379 -0.0164221 0)
(0.992552 -0.0161542 0)
(1.00422 -0.00128932 0)
(1.00446 -0.00453519 0)
(1.00488 -0.00727192 0)
(1.00537 -0.0103333 0)
(1.00587 -0.0133519 0)
(1.00628 -0.0164364 0)
(1.0065 -0.0194662 0)
(1.00647 -0.0223614 0)
(1.00613 -0.0250046 0)
(1.00548 -0.027296 0)
(1.00452 -0.0291593 0)
(1.0033 -0.0305674 0)
(1.00189 -0.0315464 0)
(1.0004 -0.0320919 0)
(0.998967 -0.032178 0)
(0.997633 -0.0318901 0)
(0.996304 -0.0315487 0)
(0.994915 -0.0314412 0)
(0.993284 -0.0314525 0)
(0.990567 -0.0312847 0)
(0.985638 -0.030754 0)
(0.979494 -0.0299864 0)
(0.975993 -0.0292883 0)
(0.977136 -0.0285956 0)
(0.980418 -0.0276795 0)
(0.983103 -0.0266468 0)
(0.984664 -0.0256744 0)
(0.985458 -0.0248236 0)
(0.985821 -0.0241039 0)
(1.00552 -0.00146383 0)
(1.00585 -0.0051314 0)
(1.00644 -0.00823789 0)
(1.00714 -0.0117409 0)
(1.00787 -0.0152255 0)
(1.00851 -0.0188377 0)
(1.00894 -0.0224473 0)
(1.00903 -0.0259716 0)
(1.00871 -0.0292725 0)
(1.00795 -0.0322272 0)
(1.00674 -0.0347312 0)
(1.00516 -0.0367054 0)
(1.00334 -0.0380901 0)
(1.00138 -0.0388148 0)
(0.999333 -0.0389243 0)
(0.997205 -0.0385694 0)
(0.995065 -0.0377062 0)
(0.993128 -0.0361457 0)
(0.991846 -0.0340163 0)
(0.992238 -0.0318333 0)
(0.995443 -0.0300753 0)
(1.00022 -0.0288351 0)
(1.00206 -0.0277747 0)
(0.998518 -0.0267842 0)
(0.992636 -0.0261097 0)
(0.987948 -0.025671 0)
(0.985011 -0.0252563 0)
(0.983218 -0.0248134 0)
(0.982071 -0.0243457 0)
(1.00683 -0.00161967 0)
(1.00727 -0.00565603 0)
(1.00802 -0.00908275 0)
(1.00895 -0.0129667 0)
(1.00996 -0.0168526 0)
(1.01088 -0.0209301 0)
(1.01156 -0.0250679 0)
(1.01185 -0.0291921 0)
(1.01162 -0.0331553 0)
(1.01081 -0.0368139 0)
(1.0094 -0.0400248 0)
(1.00745 -0.0426575 0)
(1.00507 -0.0446442 0)
(1.00234 -0.0459815 0)
(0.999342 -0.0467178 0)
(0.996216 -0.0469451 0)
(0.993135 -0.046869 0)
(0.990186 -0.0468304 0)
(0.987264 -0.0469988 0)
(0.983579 -0.0470493 0)
(0.977656 -0.0464451 0)
(0.969924 -0.0450139 0)
(0.964867 -0.0432314 0)
(0.965858 -0.0415414 0)
(0.969812 -0.0397539 0)
(0.972595 -0.0378678 0)
(0.973707 -0.0361403 0)
(0.973938 -0.034641 0)
(0.97378 -0.0333675 0)
(1.00816 -0.0017618 0)
(1.0087 -0.00612763 0)
(1.00963 -0.00983609 0)
(1.01079 -0.0140506 0)
(1.01208 -0.0182804 0)
(1.01331 -0.022764 0)
(1.0143 -0.0273774 0)
(1.01485 -0.0320678 0)
(1.0148 -0.0366899 0)
(1.01404 -0.041088 0)
(1.01253 -0.0450927 0)
(1.01029 -0.048545 0)
(1.00742 -0.0513396 0)
(1.00409 -0.0534044 0)
(1.00044 -0.0546517 0)
(0.996663 -0.0550451 0)
(0.992893 -0.0545774 0)
(0.989338 -0.0531101 0)
(0.986364 -0.0505731 0)
(0.984822 -0.0473965 0)
(0.986083 -0.044446 0)
(0.989955 -0.042426 0)
(0.991961 -0.0411558 0)
(0.98784 -0.0399461 0)
(0.980259 -0.0388852 0)
(0.974219 -0.0381501 0)
(0.970566 -0.0374588 0)
(0.968274 -0.0367264 0)
(0.966717 -0.0359744 0)
(1.00948 -0.00189071 0)
(1.01011 -0.00654986 0)
(1.01121 -0.0105055 0)
(1.01261 -0.0150045 0)
(1.01419 -0.0195249 0)
(1.01575 -0.0243561 0)
(1.01709 -0.0293877 0)
(1.01798 -0.0345967 0)
(1.01821 -0.0398498 0)
(1.01764 -0.0449923 0)
(1.01616 -0.0498381 0)
(1.01379 -0.0541926 0)
(1.01059 -0.0578789 0)
(1.00671 -0.0607676 0)
(1.00229 -0.062792 0)
(0.997412 -0.0639931 0)
(0.992248 -0.0645566 0)
(0.986995 -0.0648522 0)
(0.981806 -0.0652668 0)
(0.976407 -0.0657501 0)
(0.96951 -0.065642 0)
(0.960571 -0.0642344 0)
(0.953246 -0.0616665 0)
(0.952372 -0.0589828 0)
(0.955941 -0.0564844 0)
(0.95844 -0.0538371 0)
(0.958829 -0.0513438 0)
(0.958342 -0.049182 0)
(0.957577 -0.0473288 0)
(1.01075 -0.00200498 0)
(1.01148 -0.00691955 0)
(1.01274 -0.0110878 0)
(1.01436 -0.0158269 0)
(1.01623 -0.0205867 0)
(1.01814 -0.0257072 0)
(1.01986 -0.0310945 0)
(1.02114 -0.0367622 0)
(1.02175 -0.0426015 0)
(1.02147 -0.048475 0)
(1.02015 -0.0541941 0)
(1.01774 -0.0595442 0)
(1.01426 -0.0643095 0)
(1.00983 -0.0683296 0)
(1.0046 -0.0714927 0)
(0.998799 -0.0736886 0)
(0.992727 -0.0747816 0)
(0.986744 -0.0745322 0)
(0.981326 -0.0726423 0)
(0.97711 -0.0692889 0)
(0.975251 -0.0654155 0)
(0.976644 -0.0622634 0)
(0.978378 -0.0605126 0)
(0.974664 -0.0592544 0)
(0.965873 -0.0577812 0)
(0.958125 -0.0566303 0)
(0.953468 -0.0556515 0)
(0.950462 -0.054583 0)
(0.948306 -0.0534934 0)
(1.01196 -0.00210329 0)
(1.01278 -0.00723354 0)
(1.01419 -0.0115797 0)
(1.01602 -0.0165162 0)
(1.01817 -0.0214672 0)
(1.02042 -0.0268201 0)
(1.02253 -0.0325001 0)
(1.02425 -0.0385625 0)
(1.0253 -0.0449341 0)
(1.02542 -0.0515109 0)
(1.0244 -0.058117 0)
(1.02212 -0.0645311 0)
(1.01859 -0.0704972 0)
(1.01389 -0.0757628 0)
(1.00819 -0.0800938 0)
(1.0017 -0.0833023 0)
(0.994554 -0.0853388 0)
(0.986901 -0.0864567 0)
(0.979004 -0.0873176 0)
(0.971063 -0.0884143 0)
(0.962531 -0.0893158 0)
(0.952362 -0.0888955 0)
(0.942338 -0.0864017 0)
(0.937799 -0.0828656 0)
(0.93956 -0.0796439 0)
(0.941583 -0.0763647 0)
(0.94112 -0.0730519 0)
(0.939726 -0.0701757 0)
(0.938221 -0.0676984 0)
(1.0131 -0.00218526 0)
(1.01399 -0.00749144 0)
(1.01554 -0.0119821 0)
(1.01757 -0.017076 0)
(1.01999 -0.022174 0)
(1.02256 -0.0277064 0)
(1.02508 -0.0336181 0)
(1.02727 -0.040007 0)
(1.02882 -0.0468422 0)
(1.02945 -0.0540621 0)
(1.02891 -0.0615144 0)
(1.02701 -0.0689796 0)
(1.02369 -0.0761721 0)
(1.01894 -0.0827818 0)
(1.01285 -0.0885381 0)
(1.00553 -0.093255 0)
(0.997172 -0.0968092 0)
(0.988192 -0.0989679 0)
(0.979407 -0.0992179 0)
(0.971785 -0.097142 0)
(0.966206 -0.0932574 0)
(0.963878 -0.0891254 0)
(0.963989 -0.086442 0)
(0.960777 -0.0850922 0)
(0.951201 -0.0833925 0)
(0.941 -0.0815957 0)
(0.934627 -0.0801832 0)
(0.930552 -0.0786194 0)
(0.927485 -0.0769738 0)
(1.01415 -0.0022515 0)
(1.01512 -0.00769596 0)
(1.01679 -0.0123 0)
(1.01901 -0.0175155 0)
(1.02167 -0.0227209 0)
(1.02457 -0.028385 0)
(1.02749 -0.0344699 0)
(1.03015 -0.0411141 0)
(1.03227 -0.0483308 0)
(1.03351 -0.0561076 0)
(1.03357 -0.0643326 0)
(1.0322 -0.0728111 0)
(1.02923 -0.0812667 0)
(1.02457 -0.0893728 0)
(1.01821 -0.0967905 0)
(1.01032 -0.103176 0)
(1.00116 -0.108197 0)
(0.991072 -0.111632 0)
(0.980465 -0.113804 0)
(0.969603 -0.11574 0)
(0.958364 -0.117905 0)
(0.946042 -0.11915 0)
(0.932956 -0.11777 0)
(0.923387 -0.113793 0)
(0.921313 -0.109477 0)
(0.922297 -0.105494 0)
(0.920874 -0.101195 0)
(0.918131 -0.0973092 0)
(0.915537 -0.0939929 0)
(1.01512 -0.00230345 0)
(1.01616 -0.0078523 0)
(1.01795 -0.0125422 0)
(1.02033 -0.017848 0)
(1.02322 -0.0231268 0)
(1.02642 -0.0288806 0)
(1.02972 -0.0350855 0)
(1.03287 -0.0419161 0)
(1.03557 -0.0494306 0)
(1.03746 -0.0576729 0)
(1.03821 -0.0665874 0)
(1.0375 -0.076026 0)
(1.03506 -0.085736 0)
(1.03074 -0.0953686 0)
(1.0245 -0.104499 0)
(1.01639 -0.112681 0)
(1.00653 -0.119587 0)
(0.995181 -0.12502 0)
(0.983046 -0.128654 0)
(0.971336 -0.129703 0)
(0.961275 -0.127629 0)
(0.954098 -0.123383 0)
(0.950503 -0.119441 0)
(0.946593 -0.117612 0)
(0.936459 -0.116071 0)
(0.923007 -0.113519 0)
(0.913474 -0.111257 0)
(0.907621 -0.108946 0)
(0.903088 -0.106335 0)
(1.01602 -0.00234309 0)
(1.01711 -0.00796718 0)
(1.019 -0.0127193 0)
(1.02154 -0.0180892 0)
(1.02464 -0.0234134 0)
(1.02812 -0.029222 0)
(1.03178 -0.0355007 0)
(1.0354 -0.0424553 0)
(1.03867 -0.0501885 0)
(1.04125 -0.0588024 0)
(1.04276 -0.0683041 0)
(1.04285 -0.0785996 0)
(1.04119 -0.0894683 0)
(1.03753 -0.100567 0)
(1.0317 -0.11146 0)
(1.02358 -0.121675 0)
(1.01322 -0.13079 0)
(1.00101 -0.138376 0)
(0.987619 -0.144035 0)
(0.973575 -0.148112 0)
(0.958816 -0.151847 0)
(0.943136 -0.155362 0)
(0.926276 -0.156476 0)
(0.910565 -0.153172 0)
(0.901892 -0.147495 0)
(0.900059 -0.142308 0)
(0.897433 -0.136855 0)
(0.8926 -0.131373 0)
(0.888174 -0.12672 0)
(1.01683 -0.00237252 0)
(1.01798 -0.00804781 0)
(1.01997 -0.0128428 0)
(1.02264 -0.0182556 0)
(1.02593 -0.0236028 0)
(1.02966 -0.029438 0)
(1.03366 -0.0357518 0)
(1.03772 -0.0427757 0)
(1.04156 -0.0506529 0)
(1.04484 -0.0595404 0)
(1.04718 -0.0695076 0)
(1.04819 -0.080524 0)
(1.04747 -0.0924262 0)
(1.04467 -0.104921 0)
(1.03945 -0.117601 0)
(1.03163 -0.129949 0)
(1.02121 -0.141426 0)
(1.00847 -0.151553 0)
(0.993893 -0.159874 0)
(0.978224 -0.165708 0)
(0.962865 -0.167864 0)
(0.949591 -0.165752 0)
(0.939975 -0.161364 0)
(0.932852 -0.158534 0)
(0.921679 -0.15741 0)
(0.904474 -0.154599 0)
(0.889405 -0.150941 0)
(0.880152 -0.147527 0)
(0.873191 -0.143461 0)
(1.01758 -0.00239376 0)
(1.01877 -0.00810102 0)
(1.02085 -0.0129235 0)
(1.02364 -0.0183624 0)
(1.0271 -0.0237154 0)
(1.03106 -0.0295551 0)
(1.03537 -0.0358722 0)
(1.03984 -0.0429184 0)
(1.04423 -0.0508715 0)
(1.0482 -0.0599381 0)
(1.05139 -0.0702505 0)
(1.05336 -0.0818522 0)
(1.05367 -0.0946561 0)
(1.05186 -0.108434 0)
(1.04753 -0.122814 0)
(1.04041 -0.137268 0)
(1.03034 -0.151233 0)
(1.01746 -0.164197 0)
(1.00213 -0.175487 0)
(0.984906 -0.184414 0)
(0.966198 -0.191493 0)
(0.946051 -0.19812 0)
(0.924314 -0.203319 0)
(0.901589 -0.20327 0)
(0.883316 -0.197309 0)
(0.874832 -0.190204 0)
(0.86991 -0.183492 0)
(0.86207 -0.175841 0)
(0.854304 -0.168923 0)
(1.01826 -0.00240859 0)
(1.01949 -0.00813293 0)
(1.02165 -0.0129712 0)
(1.02455 -0.0184229 0)
(1.02817 -0.023769 0)
(1.03233 -0.0295967 0)
(1.03692 -0.0358921 0)
(1.04177 -0.0429223 0)
(1.04666 -0.0508935 0)
(1.0513 -0.0600573 0)
(1.05531 -0.0706068 0)
(1.05825 -0.0826624 0)
(1.05965 -0.0962152 0)
(1.059 -0.111105 0)
(1.05585 -0.127022 0)
(1.04976 -0.143499 0)
(1.04045 -0.15999 0)
(1.02791 -0.175935 0)
(1.01231 -0.190593 0)
(0.993931 -0.202998 0)
(0.973723 -0.21196 0)
(0.953823 -0.2158 0)
(0.936372 -0.214026 0)
(0.92238 -0.210471 0)
(0.908092 -0.209756 0)
(0.88698 -0.20849 0)
(0.863513 -0.20369 0)
(0.84726 -0.19859 0)
(0.836026 -0.192757 0)
(1.01888 -0.0024185 0)
(1.02015 -0.0081487 0)
(1.02238 -0.0129938 0)
(1.02538 -0.0184485 0)
(1.02914 -0.0237785 0)
(1.03348 -0.0295824 0)
(1.03832 -0.0358373 0)
(1.04351 -0.0428222 0)
(1.04887 -0.0507654 0)
(1.05413 -0.0599578 0)
(1.05892 -0.0706469 0)
(1.06285 -0.0830249 0)
(1.0654 -0.0971593 0)
(1.06604 -0.112968 0)
(1.06422 -0.130233 0)
(1.05943 -0.148584 0)
(1.05126 -0.167512 0)
(1.03954 -0.186444 0)
(1.0242 -0.204616 0)
(1.00527 -0.220912 0)
(0.983219 -0.234537 0)
(0.958579 -0.246429 0)
(0.931259 -0.257713 0)
(0.900989 -0.265219 0)
(0.870681 -0.26328 0)
(0.849437 -0.254673 0)
(0.8384 -0.24638 0)
(0.82645 -0.23691 0)
(0.812676 -0.226585 0)
(1.01946 -0.00242468 0)
(1.02076 -0.00815254 0)
(1.02305 -0.0129982 0)
(1.02613 -0.0184486 0)
(1.03002 -0.0237561 0)
(1.03452 -0.0295284 0)
(1.03958 -0.0357293 0)
(1.04508 -0.0426472 0)
(1.05087 -0.0505268 0)
(1.0567 -0.0596908 0)
(1.06226 -0.0704332 0)
(1.06714 -0.0830112 0)
(1.07085 -0.0975706 0)
(1.07281 -0.114115 0)
(1.07242 -0.132525 0)
(1.06912 -0.152533 0)
(1.06243 -0.173708 0)
(1.052 -0.195514 0)
(1.03747 -0.217227 0)
(1.01866 -0.237778 0)
(0.995856 -0.255868 0)
(0.970503 -0.269607 0)
(0.944876 -0.276218 0)
(0.920968 -0.27589 0)
(0.899606 -0.275738 0)
(0.874207 -0.27844 0)
(0.840596 -0.275793 0)
(0.810931 -0.268756 0)
(0.791265 -0.261238 0)
(1.01997 -0.00242808 0)
(1.02131 -0.00814784 0)
(1.02366 -0.0129897 0)
(1.02681 -0.0184307 0)
(1.03081 -0.0237117 0)
(1.03545 -0.0294473 0)
(1.04071 -0.0355851 0)
(1.04649 -0.042421 0)
(1.05267 -0.0502096 0)
(1.05903 -0.0592996 0)
(1.0653 -0.0700244 0)
(1.07109 -0.0826995 0)
(1.07592 -0.097548 0)
(1.07918 -0.114655 0)
(1.08027 -0.133992 0)
(1.07862 -0.155399 0)
(1.07369 -0.178556 0)
(1.06494 -0.203007 0)
(1.05179 -0.228092 0)
(1.03384 -0.252821 0)
(1.0111 -0.275914 0)
(0.983845 -0.296708 0)
(0.95182 -0.316614 0)
(0.914443 -0.33574 0)
(0.872295 -0.346427 0)
(0.832396 -0.342103 0)
(0.806214 -0.332058 0)
(0.787557 -0.322396 0)
(0.764741 -0.308723 0)
(1.02044 -0.00242948 0)
(1.02181 -0.00813726 0)
(1.02421 -0.0129725 0)
(1.02743 -0.0184006 0)
(1.03153 -0.023653 0)
(1.03629 -0.029349 0)
(1.04172 -0.0354183 0)
(1.04775 -0.0421624 0)
(1.05427 -0.0498409 0)
(1.06113 -0.058823 0)
(1.06805 -0.0694763 0)
(1.07468 -0.0821663 0)
(1.08057 -0.0971857 0)
(1.08511 -0.114694 0)
(1.08771 -0.134744 0)
(1.08778 -0.157285 0)
(1.08477 -0.182123 0)
(1.07801 -0.208906 0)
(1.06672 -0.237076 0)
(1.05029 -0.265842 0)
(1.02852 -0.294171 0)
(1.00157 -0.320489 0)
(0.970536 -0.341617 0)
(0.93734 -0.353049 0)
(0.90446 -0.356712 0)
(0.871832 -0.364501 0)
(0.829408 -0.372055 0)
(0.779449 -0.366815 0)
(0.741521 -0.357575 0)
(1.02086 -0.00242946 0)
(1.02225 -0.00812287 0)
(1.0247 -0.0129499 0)
(1.02797 -0.0183629 0)
(1.03217 -0.0235858 0)
(1.03703 -0.0292412 0)
(1.04262 -0.0352394 0)
(1.04887 -0.0418866 0)
(1.0557 -0.049443 0)
(1.06298 -0.0582934 0)
(1.0705 -0.0688351 0)
(1.07792 -0.0814746 0)
(1.08481 -0.0965632 0)
(1.09059 -0.11433 0)
(1.09467 -0.134901 0)
(1.09648 -0.158327 0)
(1.09545 -0.184531 0)
(1.09087 -0.213285 0)
(1.0818 -0.24416 0)
(1.06748 -0.276552 0)
(1.04767 -0.309661 0)
(1.02193 -0.342205 0)
(0.989073 -0.373723 0)
(0.947991 -0.40682 0)
(0.897941 -0.439755 0)
(0.839164 -0.455821 0)
(0.784866 -0.449142 0)
(0.748775 -0.439788 0)
(0.715016 -0.427035 0)
(1.02124 -0.00242847 0)
(1.02265 -0.00810626 0)
(1.02514 -0.0129241 0)
(1.02846 -0.0183209 0)
(1.03273 -0.0235146 0)
(1.03769 -0.0291296 0)
(1.04341 -0.0350567 0)
(1.04985 -0.0416056 0)
(1.05695 -0.0490337 0)
(1.06463 -0.0577373 0)
(1.07269 -0.068138 0)
(1.08083 -0.0806763 0)
(1.08865 -0.0957526 0)
(1.09562 -0.113659 0)
(1.10111 -0.13459 0)
(1.10461 -0.158679 0)
(1.10556 -0.185949 0)
(1.10324 -0.216293 0)
(1.09665 -0.249439 0)
(1.08491 -0.284955 0)
(1.06769 -0.322421 0)
(1.04441 -0.361156 0)
(1.01385 -0.399163 0)
(0.976656 -0.431548 0)
(0.93464 -0.451373 0)
(0.890024 -0.464693 0)
(0.839652 -0.48913 0)
(0.769714 -0.502976 0)
(0.695689 -0.493115 0)
(1.02157 -0.00242687 0)
(1.023 -0.00808861 0)
(1.02553 -0.0128969 0)
(1.02889 -0.0182772 0)
(1.03324 -0.0234427 0)
(1.03827 -0.0290183 0)
(1.04411 -0.0348761 0)
(1.05071 -0.041328 0)
(1.05805 -0.048626 0)
(1.06607 -0.0571746 0)
(1.07462 -0.0674143 0)
(1.08342 -0.0798147 0)
(1.09211 -0.0948172 0)
(1.10016 -0.11277 0)
(1.10699 -0.133924 0)
(1.11209 -0.158482 0)
(1.11497 -0.186548 0)
(1.11491 -0.218116 0)
(1.11092 -0.253075 0)
(1.10208 -0.291193 0)
(1.08798 -0.332272 0)
(1.06822 -0.376067 0)
(1.04085 -0.421513 0)
(1.00241 -0.468786 0)
(0.95195 -0.523904 0)
(0.887165 -0.582901 0)
(0.802372 -0.609914 0)
(0.720803 -0.601749 0)
(0.663793 -0.594425 0)
(1.02187 -0.00242489 0)
(1.02332 -0.00807079 0)
(1.02588 -0.0128696 0)
(1.02928 -0.0182336 0)
(1.03368 -0.0233725 0)
(1.03878 -0.0289106 0)
(1.04473 -0.034702 0)
(1.05146 -0.0410604 0)
(1.05901 -0.0482299 0)
(1.06734 -0.0566213 0)
(1.07632 -0.0666889 0)
(1.08571 -0.0789276 0)
(1.09517 -0.0938124 0)
(1.10422 -0.111739 0)
(1.11229 -0.133007 0)
(1.11891 -0.15787 0)
(1.12364 -0.186503 0)
(1.12577 -0.218976 0)
(1.12434 -0.255307 0)
(1.11857 -0.295484 0)
(1.10796 -0.339476 0)
(1.09206 -0.387472 0)
(1.06946 -0.439822 0)
(1.03743 -0.4948 0)
(0.995322 -0.544612 0)
(0.94363 -0.578221 0)
(0.884121 -0.614304 0)
(0.802829 -0.676818 0)
(0.678206 -0.695155 0)
(1.02213 -0.00242271 0)
(1.0236 -0.00805337 0)
(1.02618 -0.0128429 0)
(1.02962 -0.0181914 0)
(1.03407 -0.0233055 0)
(1.03923 -0.0288082 0)
(1.04527 -0.0345373 0)
(1.05212 -0.040807 0)
(1.05986 -0.0478523 0)
(1.06844 -0.0560887 0)
(1.0778 -0.0659806 0)
(1.08772 -0.0780437 0)
(1.09788 -0.0927808 0)
(1.10783 -0.110626 0)
(1.11704 -0.131921 0)
(1.12507 -0.156959 0)
(1.13152 -0.185969 0)
(1.13572 -0.219081 0)
(1.13674 -0.25639 0)
(1.13401 -0.298081 0)
(1.12715 -0.344368 0)
(1.11545 -0.395475 0)
(1.09835 -0.452335 0)
(1.07332 -0.515574 0)
(1.03191 -0.585651 0)
(0.973333 -0.676853 0)
(0.89839 -0.792379 0)
(0.767105 -0.852703 0)
(0.604376 -0.839582 0)
(1.02237 -0.00242046 0)
(1.02385 -0.00803679 0)
(1.02645 -0.0128176 0)
(1.02992 -0.0181513 0)
(1.03442 -0.0232426 0)
(1.03963 -0.0287126 0)
(1.04574 -0.0343839 0)
(1.0527 -0.0405706 0)
(1.06059 -0.0474984 0)
(1.0694 -0.0555856 0)
(1.07909 -0.0653038 0)
(1.08948 -0.0771857 0)
(1.10026 -0.091757 0)
(1.11102 -0.109483 0)
(1.12126 -0.130741 0)
(1.13058 -0.155853 0)
(1.1386 -0.185089 0)
(1.14473 -0.218628 0)
(1.14805 -0.256606 0)
(1.14815 -0.299311 0)
(1.14506 -0.347252 0)
(1.1379 -0.400706 0)
(1.12584 -0.460608 0)
(1.10883 -0.530641 0)
(1.08267 -0.611502 0)
(1.04186 -0.687265 0)
(0.982094 -0.741575 0)
(0.906006 -0.841214 0)
(0.745929 -1.00122 0)
(1.02257 -0.00241821 0)
(1.02406 -0.0080213 0)
(1.02669 -0.0127939 0)
(1.03019 -0.018114 0)
(1.03472 -0.0231846 0)
(1.03997 -0.0286245 0)
(1.04615 -0.0342428 0)
(1.0532 -0.0403529 0)
(1.06122 -0.047171 0)
(1.07024 -0.055117 0)
(1.08022 -0.0646674 0)
(1.09101 -0.0763685 0)
(1.10235 -0.0907649 0)
(1.11383 -0.108348 0)
(1.12499 -0.129522 0)
(1.13546 -0.154635 0)
(1.14491 -0.183977 0)
(1.15279 -0.21777 0)
(1.15825 -0.25618 0)
(1.16093 -0.299502 0)
(1.16131 -0.348455 0)
(1.15882 -0.403618 0)
(1.15196 -0.465458 0)
(1.14277 -0.537823 0)
(1.13057 -0.625066 0)
(1.09534 -0.721732 0)
(1.03627 -0.862835 0)
(0.973454 -1.12232 0)
(0.702907 -1.23996 0)
(0.999098 -0.000900756 0)
(0.999337 -0.000775573 0)
(0.999492 -0.000643857 0)
(0.999564 -0.00050542 0)
(0.999542 -0.000360046 0)
(0.99941 -0.000207364 0)
(0.999138 -4.72902e-05 0)
(0.998686 0.00011969 0)
(0.998007 0.000292216 0)
(0.99705 0.000467673 0)
(0.995767 0.000641825 0)
(0.994124 0.000808581 0)
(0.992113 0.000960019 0)
(0.989765 0.00108679 0)
(0.987158 0.00117901 0)
(0.984429 0.00122752 0)
(0.981761 0.0012255 0)
(0.979377 0.00116994 0)
(0.977504 0.00106281 0)
(0.997391 -0.00697632 0)
(0.996992 -0.00686528 0)
(0.996662 -0.00675564 0)
(0.9964 -0.00664865 0)
(0.996216 -0.00654459 0)
(0.996133 -0.00644456 0)
(0.996191 -0.00635025 0)
(0.996447 -0.00626363 0)
(0.996976 -0.00618667 0)
(0.997865 -0.00612085 0)
(0.999206 -0.00606652 0)
(1.00108 -0.0060222 0)
(1.00353 -0.00598394 0)
(1.00656 -0.00594503 0)
(1.01008 -0.00589625 0)
(1.01392 -0.0058268 0)
(1.01782 -0.00572587 0)
(1.02146 -0.00558467 0)
(1.02447 -0.00539831 0)
(0.994375 -0.0147354 0)
(0.994648 -0.0144899 0)
(0.994838 -0.0142464 0)
(0.99496 -0.0140049 0)
(0.995018 -0.0137659 0)
(0.995008 -0.0135283 0)
(0.994913 -0.0132899 0)
(0.994705 -0.0130474 0)
(0.994337 -0.0127967 0)
(0.993751 -0.0125323 0)
(0.992874 -0.0122483 0)
(0.991633 -0.0119384 0)
(0.989967 -0.0115968 0)
(0.987846 -0.0112189 0)
(0.985294 -0.010802 0)
(0.982409 -0.0103455 0)
(0.97937 -0.0098511 0)
(0.976428 -0.00932247 0)
(0.973876 -0.00876476 0)
(0.992017 -0.0158837 0)
(0.991626 -0.0156086 0)
(0.991316 -0.0153188 0)
(0.991065 -0.0150152 0)
(0.990866 -0.0146961 0)
(0.990719 -0.0143601 0)
(0.990641 -0.014006 0)
(0.990662 -0.0136328 0)
(0.990826 -0.0132397 0)
(0.991192 -0.0128266 0)
(0.991831 -0.012394 0)
(0.992814 -0.0119432 0)
(0.994198 -0.0114766 0)
(0.996005 -0.0109972 0)
(0.998201 -0.0105095 0)
(1.00068 -0.0100188 0)
(1.00326 -0.00953209 0)
(1.00569 -0.00905738 0)
(1.00769 -0.00860323 0)
(0.985958 -0.0234938 0)
(0.985975 -0.0229263 0)
(0.985902 -0.0223517 0)
(0.985752 -0.0217703 0)
(0.985527 -0.021184 0)
(0.985221 -0.0205937 0)
(0.98482 -0.0200002 0)
(0.984299 -0.0194046 0)
(0.983626 -0.0188078 0)
(0.982757 -0.0182109 0)
(0.981643 -0.0176144 0)
(0.980233 -0.017019 0)
(0.97849 -0.0164245 0)
(0.976408 -0.0158305 0)
(0.974031 -0.0152351 0)
(0.971472 -0.0146353 0)
(0.968914 -0.0140259 0)
(0.966596 -0.0133998 0)
(0.964778 -0.0127485 0)
(0.981283 -0.0238744 0)
(0.980665 -0.0233957 0)
(0.980128 -0.0228919 0)
(0.979651 -0.0223666 0)
(0.979223 -0.0218196 0)
(0.978849 -0.0212518 0)
(0.978543 -0.0206648 0)
(0.978333 -0.0200602 0)
(0.97826 -0.0194402 0)
(0.978376 -0.018807 0)
(0.978741 -0.0181624 0)
(0.979415 -0.0175077 0)
(0.98044 -0.0168431 0)
(0.981824 -0.0161679 0)
(0.983519 -0.0154805 0)
(0.985405 -0.0147796 0)
(0.987292 -0.0140653 0)
(0.988938 -0.01334 0)
(0.990092 -0.0126095 0)
(0.973469 -0.0322837 0)
(0.973084 -0.0312734 0)
(0.972635 -0.0302506 0)
(0.97214 -0.0292164 0)
(0.971609 -0.028175 0)
(0.971043 -0.027129 0)
(0.970436 -0.0260812 0)
(0.969773 -0.0250342 0)
(0.969027 -0.0239902 0)
(0.968157 -0.0229513 0)
(0.967112 -0.0219191 0)
(0.965834 -0.0208958 0)
(0.964272 -0.019884 0)
(0.962404 -0.0188875 0)
(0.96026 -0.0179111 0)
(0.957941 -0.0169595 0)
(0.955632 -0.0160354 0)
(0.953581 -0.0151379 0)
(0.952053 -0.0142598 0)
(0.965581 -0.0352275 0)
(0.964646 -0.0344773 0)
(0.963809 -0.0336959 0)
(0.963052 -0.0328886 0)
(0.962371 -0.0320555 0)
(0.961771 -0.0311975 0)
(0.961264 -0.0303164 0)
(0.960873 -0.0294142 0)
(0.96063 -0.0284929 0)
(0.960579 -0.0275544 0)
(0.960771 -0.0266001 0)
(0.961261 -0.0256299 0)
(0.962096 -0.0246412 0)
(0.963291 -0.0236278 0)
(0.96481 -0.0225798 0)
(0.966535 -0.0214845 0)
(0.968265 -0.0203293 0)
(0.96973 -0.0191068 0)
(0.970641 -0.0178193 0)
(0.95676 -0.0457444 0)
(0.955932 -0.044261 0)
(0.955075 -0.0427519 0)
(0.954212 -0.0412191 0)
(0.953358 -0.0396674 0)
(0.952518 -0.0380999 0)
(0.951694 -0.0365191 0)
(0.950873 -0.0349276 0)
(0.950033 -0.0333278 0)
(0.949133 -0.0317216 0)
(0.948114 -0.0301116 0)
(0.946902 -0.0285015 0)
(0.945416 -0.0268975 0)
(0.943589 -0.0253103 0)
(0.941403 -0.0237557 0)
(0.938928 -0.022254 0)
(0.936344 -0.0208259 0)
(0.933949 -0.0194851 0)
(0.932097 -0.0182296 0)
(0.946671 -0.0524159 0)
(0.945289 -0.0513346 0)
(0.944026 -0.0502091 0)
(0.942867 -0.0490472 0)
(0.94181 -0.0478495 0)
(0.940859 -0.0466182 0)
(0.940025 -0.0453557 0)
(0.939324 -0.0440645 0)
(0.93878 -0.042747 0)
(0.938431 -0.0414046 0)
(0.938324 -0.0400376 0)
(0.938523 -0.0386435 0)
(0.939098 -0.0372149 0)
(0.940105 -0.0357368 0)
(0.941556 -0.0341843 0)
(0.94337 -0.0325216 0)
(0.945337 -0.0307066 0)
(0.947106 -0.0287025 0)
(0.948238 -0.0264949 0)
(0.936781 -0.0655601 0)
(0.935401 -0.0635461 0)
(0.934026 -0.0614839 0)
(0.932685 -0.0593753 0)
(0.931393 -0.057223 0)
(0.930157 -0.0550264 0)
(0.928978 -0.0527843 0)
(0.927846 -0.0504952 0)
(0.926736 -0.0481571 0)
(0.925605 -0.0457683 0)
(0.924385 -0.0433277 0)
(0.922976 -0.0408369 0)
(0.921251 -0.0383024 0)
(0.91907 -0.0357405 0)
(0.916319 -0.033182 0)
(0.912975 -0.0306758 0)
(0.909186 -0.0282863 0)
(0.905333 -0.0260803 0)
(0.902015 -0.0241017 0)
(0.925106 -0.0753567 0)
(0.923055 -0.0737194 0)
(0.921143 -0.0719986 0)
(0.919351 -0.0702066 0)
(0.917672 -0.0683493 0)
(0.916108 -0.0664339 0)
(0.914662 -0.0644689 0)
(0.913344 -0.0624628 0)
(0.91217 -0.0604241 0)
(0.911168 -0.0583611 0)
(0.910388 -0.0562819 0)
(0.909907 -0.0541929 0)
(0.909837 -0.0520963 0)
(0.910319 -0.0499852 0)
(0.911492 -0.0478356 0)
(0.913424 -0.0455968 0)
(0.916003 -0.043187 0)
(0.918835 -0.0405019 0)
(0.921217 -0.0374487 0)
(0.913162 -0.0910741 0)
(0.910936 -0.0883067 0)
(0.90876 -0.0854563 0)
(0.906662 -0.0825274 0)
(0.904661 -0.0795204 0)
(0.902769 -0.0764314 0)
(0.900987 -0.0732561 0)
(0.899311 -0.0699901 0)
(0.897722 -0.0666291 0)
(0.896188 -0.0631694 0)
(0.894652 -0.0596079 0)
(0.893017 -0.0559429 0)
(0.891136 -0.0521759 0)
(0.888801 -0.0483173 0)
(0.885756 -0.0443958 0)
(0.881763 -0.0404733 0)
(0.87674 -0.0366584 0)
(0.870963 -0.033106 0)
(0.865241 -0.029982 0)
(0.899511 -0.103772 0)
(0.896416 -0.101146 0)
(0.893507 -0.0983443 0)
(0.890767 -0.0953993 0)
(0.888187 -0.0923302 0)
(0.885764 -0.0891624 0)
(0.883503 -0.0859218 0)
(0.881409 -0.0826353 0)
(0.879492 -0.0793305 0)
(0.877772 -0.0760349 0)
(0.876286 -0.0727762 0)
(0.875098 -0.0695821 0)
(0.874326 -0.0664793 0)
(0.874163 -0.06349 0)
(0.87488 -0.0606218 0)
(0.876793 -0.0578499 0)
(0.880114 -0.0550857 0)
(0.884696 -0.0521528 0)
(0.889729 -0.0487955 0)
(0.884297 -0.122549 0)
(0.880699 -0.118535 0)
(0.877251 -0.114383 0)
(0.873987 -0.110095 0)
(0.870938 -0.105681 0)
(0.868127 -0.101141 0)
(0.865566 -0.0964773 0)
(0.863259 -0.0916929 0)
(0.861199 -0.0867906 0)
(0.85937 -0.0817731 0)
(0.857734 -0.0766415 0)
(0.856222 -0.0713958 0)
(0.854712 -0.0660334 0)
(0.852994 -0.060551 0)
(0.850733 -0.0549523 0)
(0.847451 -0.0492655 0)
(0.842613 -0.0435843 0)
(0.835908 -0.0381118 0)
(0.82778 -0.0331773 0)
(0.867538 -0.139307 0)
(0.862729 -0.135026 0)
(0.858242 -0.130355 0)
(0.854079 -0.125396 0)
(0.850251 -0.120187 0)
(0.846755 -0.114788 0)
(0.843606 -0.109256 0)
(0.840809 -0.10365 0)
(0.838371 -0.0980345 0)
(0.836297 -0.092472 0)
(0.834598 -0.0870301 0)
(0.8333 -0.0817776 0)
(0.832467 -0.0767856 0)
(0.832238 -0.0721263 0)
(0.832881 -0.0678677 0)
(0.834849 -0.0640658 0)
(0.838766 -0.0607164 0)
(0.84515 -0.057693 0)
(0.853819 -0.0546481 0)
(0.847878 -0.162747 0)
(0.841924 -0.156568 0)
(0.836326 -0.150108 0)
(0.831157 -0.143334 0)
(0.826458 -0.136285 0)
(0.822292 -0.128995 0)
(0.818685 -0.121496 0)
(0.815662 -0.113833 0)
(0.813231 -0.106047 0)
(0.811389 -0.0981806 0)
(0.810113 -0.0902659 0)
(0.809354 -0.0823289 0)
(0.809022 -0.0743841 0)
(0.808957 -0.0664333 0)
(0.808867 -0.058472 0)
(0.808238 -0.0504821 0)
(0.806207 -0.0425006 0)
(0.801678 -0.034674 0)
(0.793706 -0.0273532 0)
(0.826554 -0.186083 0)
(0.818562 -0.179124 0)
(0.811216 -0.171318 0)
(0.804497 -0.162866 0)
(0.798521 -0.153883 0)
(0.793298 -0.144458 0)
(0.788888 -0.134719 0)
(0.785312 -0.124782 0)
(0.782589 -0.114775 0)
(0.780714 -0.104833 0)
(0.779675 -0.095103 0)
(0.779453 -0.085743 0)
(0.780042 -0.0769217 0)
(0.781476 -0.0688225 0)
(0.783897 -0.0616226 0)
(0.787643 -0.0555307 0)
(0.793475 -0.0506741 0)
(0.802406 -0.0471039 0)
(0.815666 -0.0447112 0)
(0.801424 -0.217416 0)
(0.791176 -0.207809 0)
(0.781508 -0.19739 0)
(0.772797 -0.186223 0)
(0.765043 -0.174304 0)
(0.758427 -0.161795 0)
(0.75301 -0.148799 0)
(0.748874 -0.135473 0)
(0.74605 -0.121971 0)
(0.744567 -0.10845 0)
(0.744412 -0.0950601 0)
(0.745552 -0.08193 0)
(0.747906 -0.0691615 0)
(0.751335 -0.0568069 0)
(0.755582 -0.0449093 0)
(0.760227 -0.033375 0)
(0.764241 -0.0222112 0)
(0.766349 -0.0115095 0)
(0.763972 -0.00134364 0)
(0.775004 -0.251329 0)
(0.760739 -0.2402 0)
(0.74791 -0.227512 0)
(0.736179 -0.213249 0)
(0.725968 -0.197842 0)
(0.717342 -0.181407 0)
(0.71047 -0.164211 0)
(0.705421 -0.146497 0)
(0.702283 -0.12852 0)
(0.701058 -0.110553 0)
(0.701739 -0.0928812 0)
(0.70427 -0.0758096 0)
(0.708569 -0.0596641 0)
(0.714538 -0.0448361 0)
(0.722155 -0.0316671 0)
(0.731398 -0.0207631 0)
(0.74321 -0.0124791 0)
(0.758232 -0.00709247 0)
(0.778857 -0.00533815 0)
(0.743917 -0.295124 0)
(0.725879 -0.280929 0)
(0.708478 -0.264254 0)
(0.692992 -0.245963 0)
(0.679425 -0.225856 0)
(0.668129 -0.204336 0)
(0.659247 -0.181718 0)
(0.652985 -0.15832 0)
(0.649375 -0.134511 0)
(0.648507 -0.110651 0)
(0.650373 -0.087099 0)
(0.654951 -0.0642131 0)
(0.662163 -0.0423427 0)
(0.671892 -0.0217132 0)
(0.683813 -0.00268619 0)
(0.697912 0.0150086 0)
(0.712325 0.0312566 0)
(0.726522 0.0460026 0)
(0.73726 0.0601534 0)
(0.713691 -0.345236 0)
(0.687785 -0.327942 0)
(0.664715 -0.30798 0)
(0.643878 -0.284654 0)
(0.625902 -0.258836 0)
(0.611056 -0.231044 0)
(0.599667 -0.20165 0)
(0.591736 -0.17122 0)
(0.587491 -0.140194 0)
(0.586902 -0.109033 0)
(0.590022 -0.0782107 0)
(0.59682 -0.0482131 0)
(0.607241 -0.0195329 0)
(0.621119 0.0070854 0)
(0.638558 0.0312857 0)
(0.658385 0.051487 0)
(0.682902 0.0671632 0)
(0.710823 0.0772665 0)
(0.745134 0.0784456 0)
(0.677145 -0.406904 0)
(0.644579 -0.386388 0)
(0.613959 -0.360468 0)
(0.586615 -0.330582 0)
(0.563348 -0.297632 0)
(0.54454 -0.261855 0)