/*--------------------------------*- C++ -*----------------------------------*\
  =========                 |
  \\      /  F ield         | OpenFOAM: The Open Source CFD Toolbox
   \\    /   O peration     | Website:  https://openfoam.org
    \\  /    A nd           | Version:  10
     \\/     M anipulation  |
\*---------------------------------------------------------------------------*/
FoamFile
{
    format      ascii;
    class       volVectorField;
    location    "0";
    object      U;
}
// * * * * * * * * * * * * * * * * * * * * * * * * * * * * * * * * * * * * * //

dimensions      [0 1 -1 0 0 0 0];

internalField   nonuniform List<vector> 
18483
(
(0.999997 -0.000181891 0)
(0.999998 -0.000654197 0)
(0.999998 -0.00105353 0)
(0.999999 -0.00149566 0)
(1 -0.00193228 0)
(1 -0.00236882 0)
(1 -0.00278656 0)
(1 -0.00317054 0)
(1 -0.00350679 0)
(1 -0.00378548 0)
(1.00001 -0.00400301 0)
(1.00001 -0.00416242 0)
(1.00003 -0.00426278 0)
(1.00005 -0.00432182 0)
(1.00009 -0.00437523 0)
(1.00013 -0.00445598 0)
(1.00015 -0.00454914 0)
(1.00002 -0.00458588 0)
(0.999336 -0.00451398 0)
(0.997438 -0.00433543 0)
(0.994174 -0.00417681 0)
(0.990868 -0.00420018 0)
(0.989427 -0.00437335 0)
(0.990242 -0.0045236 0)
(0.992175 -0.00455744 0)
(0.994118 -0.00449304 0)
(0.995625 -0.00437784 0)
(0.99667 -0.00424819 0)
(0.997362 -0.00412406 0)
(1.00057 -0.000545891 0)
(1.0006 -0.00194242 0)
(1.00068 -0.00310722 0)
(1.00076 -0.00438886 0)
(1.00084 -0.00563534 0)
(1.00091 -0.00687067 0)
(1.00095 -0.00804264 0)
(1.00096 -0.00911047 0)
(1.00091 -0.0100315 0)
(1.00082 -0.0107719 0)
(1.00068 -0.0113082 0)
(1.00051 -0.0116542 0)
(1.00032 -0.0118462 0)
(1.00012 -0.0118683 0)
(0.999932 -0.0116721 0)
(0.999716 -0.0112081 0)
(0.999425 -0.010503 0)
(0.999138 -0.00971406 0)
(0.999386 -0.00903112 0)
(1.00131 -0.00860167 0)
(1.00557 -0.00832294 0)
(1.01041 -0.00789473 0)
(1.01257 -0.00728729 0)
(1.01109 -0.00674881 0)
(1.00784 -0.00641902 0)
(1.0047 -0.00625034 0)
(1.00237 -0.00615938 0)
(1.00082 -0.00609208 0)
(0.999832 -0.00602504 0)
(1.00167 -0.000878896 0)
(1.00176 -0.00309859 0)
(1.00194 -0.00492879 0)
(1.00214 -0.00693123 0)
(1.00235 -0.00885387 0)
(1.00252 -0.0107512 0)
(1.0026 -0.0125461 0)
(1.00257 -0.014184 0)
(1.00241 -0.0156029 0)
(1.00211 -0.0167628 0)
(1.00167 -0.0176391 0)
(1.00112 -0.0182342 0)
(1.00055 -0.0185703 0)
(0.999992 -0.0186601 0)
(0.999459 -0.0185938 0)
(0.998901 -0.0185812 0)
(0.998304 -0.0187565 0)
(0.997612 -0.0190251 0)
(0.996424 -0.0191543 0)
(0.993794 -0.018916 0)
(0.989081 -0.0182512 0)
(0.983841 -0.0174403 0)
(0.981409 -0.0167526 0)
(0.982913 -0.016096 0)
(0.986242 -0.0153567 0)
(0.989271 -0.014594 0)
(0.99135 -0.0138865 0)
(0.992616 -0.0132703 0)
(0.993348 -0.0127526 0)
(1.00301 -0.00116629 0)
(1.00316 -0.00407994 0)
(1.00346 -0.00646106 0)
(1.00379 -0.00905844 0)
(1.00413 -0.0115324 0)
(1.0044 -0.0139764 0)
(1.00454 -0.0163 0)
(1.00448 -0.0184452 0)
(1.0042 -0.0203354 0)
(1.00369 -0.0219123 0)
(1.00297 -0.0231167 0)
(1.0021 -0.0238938 0)
(1.00116 -0.024248 0)
(1.00017 -0.0242333 0)
(0.999144 -0.0239413 0)
(0.998115 -0.0232927 0)
(0.997144 -0.0220782 0)
(0.996299 -0.0203568 0)
(0.995932 -0.0184862 0)
(0.997067 -0.016874 0)
(1.0007 -0.0157947 0)
(1.00546 -0.0151432 0)
(1.00754 -0.0145601 0)
(1.00523 -0.0140035 0)
(1.0008 -0.0135999 0)
(0.996817 -0.013301 0)
(0.994063 -0.0130212 0)
(0.992331 -0.0127299 0)
(0.991258 -0.0124241 0)
(1.00442 -0.00141337 0)
(1.00463 -0.00491199 0)
(1.00504 -0.00775577 0)
(1.00551 -0.0108578 0)
(1.006 -0.013804 0)
(1.0064 -0.016734 0)
(1.00662 -0.0195509 0)
(1.00658 -0.0221976 0)
(1.00623 -0.02458 0)
(1.00555 -0.0266109 0)
(1.00454 -0.028211 0)
(1.00324 -0.0293384 0)
(1.00168 -0.030033 0)
(0.999933 -0.0303741 0)
(0.998091 -0.0304151 0)
(0.996243 -0.0302252 0)
(0.994387 -0.0300319 0)
(0.99248 -0.030047 0)
(0.990322 -0.0301412 0)
(0.987209 -0.0299111 0)
(0.982268 -0.0290051 0)
(0.976413 -0.0274474 0)
(0.973104 -0.0257287 0)
(0.974305 -0.024176 0)
(0.977771 -0.0226875 0)
(0.980732 -0.0212713 0)
(0.982466 -0.0200128 0)
(0.98329 -0.01893 0)
(0.983594 -0.0180157 0)
(1.00585 -0.00163337 0)
(1.00612 -0.00564566 0)
(1.00664 -0.00889958 0)
(1.00725 -0.0124557 0)
(1.00791 -0.0158365 0)
(1.00847 -0.0192341 0)
(1.00884 -0.0225501 0)
(1.00888 -0.0257374 0)
(1.00851 -0.0286931 0)
(1.00769 -0.031321 0)
(1.00638 -0.0335403 0)
(1.00462 -0.0353105 0)
(1.00253 -0.0365953 0)
(1.00026 -0.0373239 0)
(0.997968 -0.0374732 0)
(0.995705 -0.0370415 0)
(0.993508 -0.0359676 0)
(0.991435 -0.0341661 0)
(0.98971 -0.0317482 0)
(0.989064 -0.0291974 0)
(0.990619 -0.0271402 0)
(0.993994 -0.0259264 0)
(0.995847 -0.0252189 0)
(0.993465 -0.0244976 0)
(0.988543 -0.0238187 0)
(0.984118 -0.0232534 0)
(0.981119 -0.0226984 0)
(0.979208 -0.0221317 0)
(0.977958 -0.021562 0)
(1.00731 -0.00183524 0)
(1.00765 -0.00631445 0)
(1.00828 -0.00994541 0)
(1.00905 -0.0139232 0)
(1.0099 -0.0177148 0)
(1.01067 -0.0215703 0)
(1.01123 -0.0253961 0)
(1.01142 -0.0291657 0)
(1.01113 -0.0327778 0)
(1.01026 -0.0361292 0)
(1.00879 -0.0391019 0)
(1.00679 -0.0415811 0)
(1.00437 -0.0434536 0)
(1.00165 -0.0446441 0)
(0.998645 -0.0452133 0)
(0.995386 -0.0453173 0)
(0.991876 -0.0452263 0)
(0.988134 -0.0452074 0)
(0.984212 -0.0452977 0)
(0.979947 -0.045238 0)
(0.974703 -0.0445674 0)
(0.968514 -0.0429763 0)
(0.963914 -0.0407438 0)
(0.963586 -0.0385664 0)
(0.966139 -0.0365601 0)
(0.968408 -0.0345835 0)
(0.969423 -0.0327765 0)
(0.969608 -0.0311987 0)
(0.969394 -0.0298444 0)
(1.00881 -0.0020219 0)
(1.00921 -0.00692877 0)
(1.00997 -0.0109067 0)
(1.01089 -0.0152731 0)
(1.01195 -0.0194447 0)
(1.01295 -0.0237328 0)
(1.01376 -0.0280526 0)
(1.0142 -0.0324062 0)
(1.01409 -0.0366988 0)
(1.01332 -0.0408175 0)
(1.01183 -0.0446084 0)
(1.00963 -0.0479193 0)
(1.0068 -0.0506505 0)
(1.00339 -0.0527621 0)
(0.999532 -0.0542595 0)
(0.995394 -0.0551072 0)
(0.991157 -0.0551835 0)
(0.986998 -0.0542493 0)
(0.983154 -0.05224 0)
(0.98026 -0.0495653 0)
(0.979393 -0.0468977 0)
(0.980896 -0.0448286 0)
(0.982287 -0.0435166 0)
(0.979981 -0.0423922 0)
(0.974454 -0.0412152 0)
(0.969165 -0.0402494 0)
(0.965539 -0.0393773 0)
(0.963129 -0.0385027 0)
(0.961435 -0.0376402 0)
(1.01032 -0.00219325 0)
(1.01079 -0.00748815 0)
(1.01165 -0.0117799 0)
(1.01274 -0.0164948 0)
(1.01401 -0.0210028 0)
(1.01527 -0.025676 0)
(1.01638 -0.030442 0)
(1.01712 -0.0353383 0)
(1.01729 -0.0402871 0)
(1.01672 -0.0451836 0)
(1.01529 -0.0498718 0)
(1.01296 -0.054185 0)
(1.00978 -0.0579757 0)
(1.0059 -0.0610886 0)
(1.00151 -0.0633737 0)
(0.996758 -0.0647283 0)
(0.991669 -0.0652588 0)
(0.986204 -0.0654398 0)
(0.980428 -0.0657728 0)
(0.974437 -0.066212 0)
(0.967762 -0.0662309 0)
(0.960005 -0.065299 0)
(0.952991 -0.0632581 0)
(0.950125 -0.0607637 0)
(0.951311 -0.05837 0)
(0.952876 -0.0558792 0)
(0.953109 -0.0534449 0)
(0.952551 -0.0512797 0)
(0.951721 -0.0493915 0)
(1.0118 -0.00234878 0)
(1.01232 -0.00799096 0)
(1.01329 -0.0125606 0)
(1.01453 -0.0175787 0)
(1.01602 -0.02237 0)
(1.01756 -0.0273658 0)
(1.01899 -0.0325083 0)
(1.02009 -0.037877 0)
(1.02062 -0.0434243 0)
(1.02037 -0.0490705 0)
(1.01917 -0.0546683 0)
(1.01692 -0.0600209 0)
(1.01367 -0.0649026 0)
(1.0095 -0.0690863 0)
(1.00452 -0.072427 0)
(0.998815 -0.0748919 0)
(0.992499 -0.0764964 0)
(0.985879 -0.0771069 0)
(0.979523 -0.0763793 0)
(0.974062 -0.0742916 0)
(0.970408 -0.0714825 0)
(0.969508 -0.0688262 0)
(0.969872 -0.0669392 0)
(0.967155 -0.0654807 0)
(0.960199 -0.0638884 0)
(0.952971 -0.0624891 0)
(0.947982 -0.0612967 0)
(0.944604 -0.0600663 0)
(0.942105 -0.0588275 0)
(1.01321 -0.00248862 0)
(1.01379 -0.0084381 0)
(1.01486 -0.0132495 0)
(1.01625 -0.0185245 0)
(1.01795 -0.023544 0)
(1.01977 -0.028794 0)
(1.02154 -0.0342325 0)
(1.02305 -0.0399832 0)
(1.02403 -0.0460373 0)
(1.02423 -0.0523505 0)
(1.02343 -0.0587941 0)
(1.02148 -0.0651671 0)
(1.0183 -0.0712262 0)
(1.01391 -0.0767247 0)
(1.00837 -0.0814497 0)
(1.0019 -0.0851994 0)
(0.994782 -0.0877967 0)
(0.987286 -0.0892942 0)
(0.979563 -0.0902927 0)
(0.971551 -0.0914607 0)
(0.962819 -0.0925301 0)
(0.952657 -0.0925445 0)
(0.942177 -0.0909074 0)
(0.935521 -0.0882094 0)
(0.93461 -0.0854242 0)
(0.935377 -0.0824563 0)
(0.934572 -0.0793274 0)
(0.932853 -0.0764861 0)
(0.931024 -0.0739834 0)
(1.01455 -0.00261379 0)
(1.01518 -0.00883354 0)
(1.01634 -0.0138533 0)
(1.01787 -0.0193424 0)
(1.01976 -0.0245378 0)
(1.02185 -0.0299757 0)
(1.02397 -0.0356277 0)
(1.02591 -0.0416613 0)
(1.0274 -0.0481123 0)
(1.02815 -0.0549847 0)
(1.02788 -0.0621916 0)
(1.02635 -0.0695633 0)
(1.02342 -0.076859 0)
(1.01904 -0.0837732 0)
(1.01327 -0.0899653 0)
(1.0063 -0.0951335 0)
(0.998338 -0.0991425 0)
(0.989662 -0.101986 0)
(0.980726 -0.103441 0)
(0.972212 -0.103005 0)
(0.965061 -0.100733 0)
(0.960737 -0.0977433 0)
(0.959163 -0.0953963 0)
(0.95575 -0.0938049 0)
(0.946864 -0.0919767 0)
(0.936425 -0.0901087 0)
(0.929054 -0.0885699 0)
(0.92412 -0.0869265 0)
(0.920323 -0.0851872 0)
(1.01582 -0.00272578 0)
(1.01648 -0.00918298 0)
(1.01773 -0.0143819 0)
(1.01938 -0.020048 0)
(1.02145 -0.0253741 0)
(1.02378 -0.0309407 0)
(1.02625 -0.0367304 0)
(1.02862 -0.0429524 0)
(1.03064 -0.049691 0)
(1.03198 -0.0570096 0)
(1.03234 -0.064878 0)
(1.03142 -0.0731699 0)
(1.02901 -0.0816531 0)
(1.02495 -0.0899948 0)
(1.0192 -0.0978205 0)
(1.01182 -0.104802 0)
(1.00307 -0.1107 0)
(0.993399 -0.115304 0)
(0.983212 -0.118604 0)
(0.972503 -0.121231 0)
(0.960934 -0.123786 0)
(0.947847 -0.125549 0)
(0.933346 -0.125079 0)
(0.921469 -0.122353 0)
(0.91694 -0.119024 0)
(0.91658 -0.115551 0)
(0.914512 -0.111571 0)
(0.911022 -0.107817 0)
(0.907681 -0.104529 0)
(1.017 -0.00282621 0)
(1.0177 -0.00949238 0)
(1.01902 -0.0148459 0)
(1.02077 -0.0206583 0)
(1.023 -0.0260777 0)
(1.02557 -0.0317242 0)
(1.02834 -0.0375873 0)
(1.03114 -0.0439141 0)
(1.03369 -0.0508368 0)
(1.03568 -0.0584801 0)
(1.03678 -0.0668766 0)
(1.03665 -0.0759569 0)
(1.03498 -0.085535 0)
(1.0315 -0.0953142 0)
(1.02604 -0.104913 0)
(1.0186 -0.113903 0)
(1.0095 -0.121865 0)
(0.999144 -0.128448 0)
(0.987826 -0.133321 0)
(0.97596 -0.135924 0)
(0.964631 -0.135707 0)
(0.955728 -0.133241 0)
(0.95064 -0.13056 0)
(0.945947 -0.129132 0)
(0.935194 -0.127684 0)
(0.920288 -0.125474 0)
(0.90892 -0.123564 0)
(0.901628 -0.12153 0)
(0.895886 -0.119119 0)
(1.0181 -0.00291655 0)
(1.01883 -0.00976715 0)
(1.02022 -0.0152548 0)
(1.02205 -0.021189 0)
(1.02442 -0.0266723 0)
(1.02719 -0.0323604 0)
(1.03026 -0.0382446 0)
(1.03345 -0.044604 0)
(1.03653 -0.0516139 0)
(1.0392 -0.0594584 0)
(1.04111 -0.0682392 0)
(1.04188 -0.0779638 0)
(1.04112 -0.0885222 0)
(1.03846 -0.0996726 0)
(1.03363 -0.111029 0)
(1.02656 -0.122098 0)
(1.01742 -0.132402 0)
(1.00645 -0.141522 0)
(0.99391 -0.149078 0)
(0.980002 -0.155121 0)
(0.964853 -0.160479 0)
(0.948166 -0.165317 0)
(0.929197 -0.167793 0)
(0.910559 -0.166149 0)
(0.899544 -0.162184 0)
(0.896696 -0.158095 0)
(0.893245 -0.153198 0)
(0.887143 -0.148069 0)
(0.881473 -0.143647 0)
(1.01912 -0.00299814 0)
(1.01988 -0.0100121 0)
(1.02132 -0.0156172 0)
(1.02323 -0.0216538 0)
(1.02572 -0.0271787 0)
(1.02866 -0.0328796 0)
(1.03198 -0.0387437 0)
(1.03554 -0.0450757 0)
(1.03914 -0.0520888 0)
(1.04247 -0.0600241 0)
(1.0452 -0.0690557 0)
(1.04692 -0.0792761 0)
(1.0472 -0.0906581 0)
(1.0456 -0.103028 0)
(1.04175 -0.116049 0)
(1.03542 -0.129252 0)
(1.02658 -0.142113 0)
(1.01547 -0.154056 0)
(1.00229 -0.164387 0)
(0.987351 -0.172249 0)
(0.971673 -0.17655 0)
(0.957217 -0.176782 0)
(0.946419 -0.174644 0)
(0.93873 -0.173533 0)
(0.92644 -0.1735 0)
(0.906333 -0.171763 0)
(0.888194 -0.169392 0)
(0.876894 -0.167073 0)
(0.868174 -0.163792 0)
(1.02007 -0.0030721 0)
(1.02084 -0.0102312 0)
(1.02233 -0.0159402 0)
(1.0243 -0.0220639 0)
(1.02689 -0.027614 0)
(1.02998 -0.0333072 0)
(1.03353 -0.0391206 0)
(1.03742 -0.0453787 0)
(1.04148 -0.0523286 0)
(1.04545 -0.0602621 0)
(1.04898 -0.0694217 0)
(1.05169 -0.07998 0)
(1.05312 -0.091997 0)
(1.05279 -0.105393 0)
(1.0502 -0.119929 0)
(1.04498 -0.135189 0)
(1.03699 -0.150601 0)
(1.02628 -0.165495 0)
(1.01281 -0.179133 0)
(0.996547 -0.190926 0)
(0.977816 -0.201255 0)
(0.956894 -0.211148 0)
(0.933091 -0.219377 0)
(0.906735 -0.222012 0)
(0.885328 -0.218563 0)
(0.876085 -0.21362 0)
(0.870737 -0.208138 0)
(0.861079 -0.201214 0)
(0.851433 -0.194994 0)
(1.02095 -0.00313933 0)
(1.02174 -0.010428 0)
(1.02327 -0.0162295 0)
(1.02528 -0.0224285 0)
(1.02796 -0.0279923 0)
(1.03117 -0.0336639 0)
(1.03491 -0.0394051 0)
(1.03909 -0.0455564 0)
(1.04357 -0.0523922 0)
(1.04812 -0.0602467 0)
(1.05245 -0.0694207 0)
(1.05616 -0.0801622 0)
(1.05882 -0.0926237 0)
(1.05988 -0.106836 0)
(1.05876 -0.122669 0)
(1.05501 -0.139788 0)
(1.04831 -0.157661 0)
(1.03847 -0.175634 0)
(1.02525 -0.192939 0)
(1.0086 -0.208526 0)
(0.989303 -0.220819 0)
(0.969289 -0.227831 0)
(0.951048 -0.229174 0)
(0.936979 -0.228808 0)
(0.92246 -0.231138 0)
(0.897818 -0.232419 0)
(0.869266 -0.230104 0)
(0.849995 -0.227525 0)
(0.836477 -0.223481 0)
(1.02177 -0.0032005 0)
(1.02257 -0.0106049 0)
(1.02414 -0.0164897 0)
(1.02618 -0.0227544 0)
(1.02893 -0.028324 0)
(1.03224 -0.0339657 0)
(1.03614 -0.0396208 0)
(1.04058 -0.0456427 0)
(1.04544 -0.0523267 0)
(1.05053 -0.0600391 0)
(1.0556 -0.0691304 0)
(1.0603 -0.0799198 0)
(1.06417 -0.0926499 0)
(1.06667 -0.107459 0)
(1.06718 -0.124331 0)
(1.06515 -0.143051 0)
(1.06012 -0.163193 0)
(1.05171 -0.184142 0)
(1.0395 -0.205103 0)
(1.02312 -0.225029 0)
(1.00256 -0.243134 0)
(0.978028 -0.260282 0)
(0.949308 -0.277304 0)
(0.915637 -0.290077 0)
(0.880824 -0.292097 0)
(0.857731 -0.286758 0)
(0.847258 -0.281138 0)
(0.833584 -0.273163 0)
(0.816937 -0.264148 0)
(1.02253 -0.00325614 0)
(1.02333 -0.0107641 0)
(1.02493 -0.0167243 0)
(1.027 -0.0230468 0)
(1.02981 -0.0286174 0)
(1.0332 -0.0342245 0)
(1.03724 -0.0397854 0)
(1.0419 -0.0456639 0)
(1.04709 -0.0521695 0)
(1.05268 -0.0596931 0)
(1.05844 -0.068627 0)
(1.06406 -0.0793537 0)
(1.0691 -0.092195 0)
(1.07304 -0.107388 0)
(1.07526 -0.125032 0)
(1.07513 -0.145051 0)
(1.07212 -0.167155 0)
(1.06566 -0.190829 0)
(1.05512 -0.215398 0)
(1.03981 -0.239952 0)
(1.01961 -0.262971 0)
(0.995674 -0.281773 0)
(0.970276 -0.29289 0)
(0.946595 -0.296701 0)
(0.926424 -0.301425 0)
(0.899074 -0.309545 0)
(0.858441 -0.311321 0)
(0.823291 -0.308474 0)
(0.800904 -0.30454 0)
(1.02322 -0.00330669 0)
(1.02403 -0.0109074 0)
(1.02567 -0.0169361 0)
(1.02775 -0.0233099 0)
(1.03061 -0.0288785 0)
(1.03406 -0.0344493 0)
(1.03821 -0.0399121 0)
(1.04306 -0.04564 0)
(1.04855 -0.051951 0)
(1.05458 -0.0592552 0)
(1.06096 -0.0679779 0)
(1.06742 -0.0785529 0)
(1.07358 -0.0913687 0)
(1.07894 -0.10675 0)
(1.08288 -0.124909 0)
(1.08476 -0.145903 0)
(1.08399 -0.1696 0)
(1.0799 -0.195652 0)
(1.07162 -0.223534 0)
(1.05829 -0.252452 0)
(1.0393 -0.281051 0)
(1.01415 -0.308463 0)
(0.982252 -0.336415 0)
(0.942959 -0.364736 0)
(0.896056 -0.383259 0)
(0.851298 -0.383807 0)
(0.825141 -0.377756 0)
(0.806609 -0.371382 0)
(0.779866 -0.359639 0)
(1.02386 -0.00335254 0)
(1.02468 -0.0110363 0)
(1.02633 -0.0171275 0)
(1.02843 -0.0235468 0)
(1.03134 -0.029112 0)
(1.03483 -0.0346466 0)
(1.03908 -0.0400109 0)
(1.04408 -0.045587 0)
(1.04983 -0.0516958 0)
(1.05625 -0.0587622 0)
(1.06319 -0.067236 0)
(1.07043 -0.077591 0)
(1.07763 -0.09027 0)
(1.08434 -0.105673 0)
(1.08997 -0.124116 0)
(1.09387 -0.145774 0)
(1.09546 -0.170683 0)
(1.094 -0.198693 0)
(1.08849 -0.229454 0)
(1.07787 -0.262459 0)
(1.06118 -0.29674 0)
(1.03781 -0.330158 0)
(1.00883 -0.358487 0)
(0.976841 -0.376065 0)
(0.94561 -0.385212 0)
(0.91419 -0.400974 0)
(0.866006 -0.417298 0)
(0.806125 -0.41821 0)
(0.763384 -0.414811 0)
(1.02444 -0.00339404 0)
(1.02526 -0.0111521 0)
(1.02694 -0.0173004 0)
(1.02904 -0.0237603 0)
(1.03199 -0.0293215 0)
(1.03551 -0.0348212 0)
(1.03984 -0.0400892 0)
(1.04497 -0.0455167 0)
(1.05094 -0.0514222 0)
(1.0577 -0.0582413 0)
(1.06514 -0.066442 0)
(1.07309 -0.0765279 0)
(1.08126 -0.0889863 0)
(1.08923 -0.104279 0)
(1.09646 -0.122808 0)
(1.10233 -0.144855 0)
(1.10627 -0.170601 0)
(1.10761 -0.200109 0)
(1.10525 -0.233237 0)
(1.09795 -0.269718 0)
(1.08468 -0.30893 0)
(1.06401 -0.349221 0)
(1.03398 -0.390079 0)
(0.99352 -0.435227 0)
(0.940895 -0.482249 0)
(0.875185 -0.508778 0)
(0.815951 -0.507147 0)
(0.781229 -0.502903 0)
(0.74487 -0.494021 0)
(1.02496 -0.0034315 0)
(1.02579 -0.0112559 0)
(1.02748 -0.0174564 0)
(1.02959 -0.0239526 0)
(1.03257 -0.0295099 0)
(1.03611 -0.0349765 0)
(1.04051 -0.0401524 0)
(1.04575 -0.0454375 0)
(1.0519 -0.0511433 0)
(1.05896 -0.0577134 0)
(1.06685 -0.0656285 0)
(1.07544 -0.0754146 0)
(1.08448 -0.0875943 0)
(1.0936 -0.102676 0)
(1.10232 -0.121133 0)
(1.11006 -0.143335 0)
(1.11631 -0.169579 0)
(1.12047 -0.200127 0)
(1.12148 -0.235076 0)
(1.11792 -0.274362 0)
(1.10869 -0.317893 0)
(1.09215 -0.364909 0)
(1.06643 -0.412797 0)
(1.03275 -0.455414 0)
(0.993308 -0.483384 0)
(0.951262 -0.503944 0)
(0.900267 -0.541913 0)
(0.81872 -0.568463 0)
(0.732187 -0.565539 0)
(1.02543 -0.00346521 0)
(1.02626 -0.0113489 0)
(1.02797 -0.0175969 0)
(1.03008 -0.0241254 0)
(1.03308 -0.0296794 0)
(1.03664 -0.0351154 0)
(1.04109 -0.0402046 0)
(1.04642 -0.0453553 0)
(1.05273 -0.0508688 0)
(1.06004 -0.0571944 0)
(1.06832 -0.0648215 0)
(1.07748 -0.0742919 0)
(1.0873 -0.0861549 0)
(1.09747 -0.100954 0)
(1.10755 -0.119213 0)
(1.11705 -0.14138 0)
(1.12549 -0.167842 0)
(1.13238 -0.199011 0)
(1.13679 -0.235233 0)
(1.13726 -0.276672 0)
(1.13254 -0.323515 0)
(1.12137 -0.375663 0)
(1.10092 -0.431668 0)
(1.06688 -0.491877 0)
(1.01771 -0.564588 0)
(0.949146 -0.645143 0)
(0.853634 -0.685961 0)
(0.765679 -0.681955 0)
(0.709163 -0.681556 0)
(1.02585 -0.00349545 0)
(1.02669 -0.011432 0)
(1.02841 -0.017723 0)
(1.03052 -0.0242806 0)
(1.03354 -0.0298318 0)
(1.03711 -0.0352397 0)
(1.0416 -0.0402486 0)
(1.047 -0.0452741 0)
(1.05344 -0.0506053 0)
(1.06097 -0.0566962 0)
(1.06959 -0.0640407 0)
(1.07924 -0.0731914 0)
(1.08975 -0.0847163 0)
(1.10086 -0.0991847 0)
(1.11219 -0.117158 0)
(1.12329 -0.139143 0)
(1.13378 -0.165603 0)
(1.14325 -0.197049 0)
(1.15093 -0.234027 0)
(1.15554 -0.276972 0)
(1.15564 -0.326231 0)
(1.15002 -0.382356 0)
(1.13659 -0.445923 0)
(1.11164 -0.514742 0)
(1.07472 -0.579149 0)
(1.02684 -0.623731 0)
(0.970112 -0.670361 0)
(0.883263 -0.756478 0)
(0.736974 -0.79012 0)
(1.02623 -0.00352246 0)
(1.02707 -0.0115061 0)
(1.0288 -0.0178359 0)
(1.03091 -0.0244195 0)
(1.03395 -0.0299687 0)
(1.03752 -0.035351 0)
(1.04205 -0.0402863 0)
(1.0475 -0.0451965 0)
(1.05405 -0.0503575 0)
(1.06177 -0.0562268 0)
(1.07068 -0.0632996 0)
(1.08075 -0.0721352 0)
(1.09188 -0.0833143 0)
(1.10383 -0.0974246 0)
(1.11626 -0.115054 0)
(1.12881 -0.13675 0)
(1.14118 -0.163038 0)
(1.15304 -0.194499 0)
(1.16375 -0.231786 0)
(1.17235 -0.275602 0)
(1.17748 -0.326556 0)
(1.1776 -0.385267 0)
(1.17201 -0.453296 0)
(1.15714 -0.53109 0)
(1.12192 -0.618442 0)
(1.06543 -0.734533 0)
(0.986776 -0.885556 0)
(0.83595 -0.966813 0)
(0.656266 -0.953948 0)
(1.02657 -0.00354648 0)
(1.02741 -0.011572 0)
(1.02915 -0.0179366 0)
(1.03126 -0.0245435 0)
(1.0343 -0.0300912 0)
(1.03788 -0.0354505 0)
(1.04244 -0.0403192 0)
(1.04793 -0.0451242 0)
(1.05458 -0.0501281 0)
(1.06245 -0.055791 0)
(1.07161 -0.0626071 0)
(1.08205 -0.0711396 0)
(1.09371 -0.0819767 0)
(1.10639 -0.0957187 0)
(1.11981 -0.112971 0)
(1.13365 -0.134309 0)
(1.1477 -0.160301 0)
(1.16175 -0.191586 0)
(1.17525 -0.228862 0)
(1.18746 -0.272975 0)
(1.19756 -0.324902 0)
(1.20372 -0.385258 0)
(1.20514 -0.455776 0)
(1.20127 -0.541116 0)
(1.18511 -0.641252 0)
(1.15184 -0.738006 0)
(1.09838 -0.810788 0)
(1.02249 -0.93041 0)
(0.841816 -1.12934 0)
(1.02687 -0.00356775 0)
(1.02771 -0.0116304 0)
(1.02946 -0.0180261 0)
(1.03157 -0.0246538 0)
(1.03462 -0.0302006 0)
(1.0382 -0.0355394 0)
(1.04277 -0.0403482 0)
(1.0483 -0.0450579 0)
(1.05503 -0.0499184 0)
(1.06303 -0.0553912 0)
(1.0724 -0.0619682 0)
(1.08316 -0.0702143 0)
(1.09528 -0.0807215 0)
(1.10861 -0.0940978 0)
(1.12289 -0.110959 0)
(1.13786 -0.1319 0)
(1.1534 -0.157511 0)
(1.16942 -0.188476 0)
(1.18546 -0.225525 0)
(1.20087 -0.269505 0)
(1.21546 -0.32167 0)
(1.22776 -0.382973 0)
(1.23606 -0.454594 0)
(1.24288 -0.541933 0)
(1.24565 -0.649073 0)
(1.22039 -0.767512 0)
(1.16594 -0.942686 0)
(1.10183 -1.27062 0)
(0.784892 -1.42698 0)
(0.997816 -0.00401204 0)
(0.998134 -0.0039039 0)
(0.99836 -0.00379165 0)
(0.998506 -0.0036768 0)
(0.998577 -0.0035605 0)
(0.998574 -0.00344342 0)
(0.998487 -0.00332615 0)
(0.998304 -0.00320932 0)
(0.998003 -0.00309367 0)
(0.997561 -0.00298011 0)
(0.996955 -0.00286976 0)
(0.996165 -0.00276393 0)
(0.995184 -0.00266403 0)
(0.994019 -0.00257138 0)
(0.992704 -0.00248695 0)
(0.991299 -0.00241093 0)
(0.989888 -0.0023424 0)
(0.988576 -0.00227904 0)
(0.987477 -0.00221704 0)
(0.999202 -0.00595488 0)
(0.998768 -0.00588286 0)
(0.998461 -0.00580848 0)
(0.998257 -0.00573188 0)
(0.998143 -0.00565185 0)
(0.998116 -0.00556756 0)
(0.998181 -0.00547819 0)
(0.998353 -0.00538265 0)
(0.998654 -0.00527947 0)
(0.99911 -0.00516668 0)
(0.999749 -0.00504182 0)
(1.00059 -0.00490191 0)
(1.00165 -0.00474368 0)
(1.00291 -0.00456387 0)
(1.00432 -0.00435981 0)
(1.00581 -0.00413014 0)
(1.00726 -0.0038756 0)
(1.00855 -0.00359967 0)
(1.00952 -0.0033089 0)
(0.993764 -0.0123179 0)
(0.994011 -0.011917 0)
(0.994145 -0.0115133 0)
(0.994188 -0.011106 0)
(0.99415 -0.0106953 0)
(0.994028 -0.0102806 0)
(0.993813 -0.00986081 0)
(0.993486 -0.0094354 0)
(0.99302 -0.00900401 0)
(0.992384 -0.0085669 0)
(0.991548 -0.00812526 0)
(0.990488 -0.0076815 0)
(0.989195 -0.00723946 0)
(0.987687 -0.00680435 0)
(0.986012 -0.0063824 0)
(0.984258 -0.00598006 0)
(0.982552 -0.00560286 0)
(0.981044 -0.00525414 0)
(0.979891 -0.0049339 0)
(0.990573 -0.0121157 0)
(0.990085 -0.0118022 0)
(0.989706 -0.0114733 0)
(0.989407 -0.0111313 0)
(0.98917 -0.0107758 0)
(0.988989 -0.0104071 0)
(0.988868 -0.0100258 0)
(0.988825 -0.00963277 0)
(0.988888 -0.00922909 0)
(0.989097 -0.00881586 0)
(0.989497 -0.00839394 0)
(0.990135 -0.00796344 0)
(0.991045 -0.00752329 0)
(0.992242 -0.00707088 0)
(0.9937 -0.00660207 0)
(0.995348 -0.00611174 0)
(0.997062 -0.00559501 0)
(0.998677 -0.00504893 0)
(1 -0.00447421 0)
(0.983632 -0.0172398 0)
(0.983533 -0.0165176 0)
(0.983334 -0.0157855 0)
(0.98306 -0.0150426 0)
(0.982722 -0.0142906 0)
(0.982326 -0.0135305 0)
(0.981867 -0.0127637 0)
(0.981335 -0.0119919 0)
(0.980711 -0.0112174 0)
(0.979969 -0.0104433 0)
(0.979077 -0.00967317 0)
(0.978001 -0.00891215 0)
(0.976712 -0.00816697 0)
(0.975201 -0.00744626 0)
(0.973488 -0.00676035 0)
(0.971643 -0.00612021 0)
(0.969787 -0.00553542 0)
(0.968094 -0.00501135 0)
(0.966765 -0.0045462 0)
(0.97709 -0.0210066 0)
(0.976407 -0.0204555 0)
(0.975818 -0.0198886 0)
(0.975301 -0.0193103 0)
(0.974848 -0.018721 0)
(0.974459 -0.0181217 0)
(0.974148 -0.0175139 0)
(0.973939 -0.0168988 0)
(0.973867 -0.0162776 0)
(0.973979 -0.015651 0)
(0.974332 -0.0150181 0)
(0.974988 -0.0143759 0)
(0.976006 -0.0137177 0)
(0.977419 -0.0130327 0)
(0.979223 -0.0123053 0)
(0.981344 -0.011516 0)
(0.983629 -0.0106446 0)
(0.985843 -0.00967449 0)
(0.9877 -0.00859876 0)
(0.969022 -0.0286808 0)
(0.968575 -0.0275873 0)
(0.968065 -0.0264696 0)
(0.967517 -0.0253277 0)
(0.966946 -0.0241646 0)
(0.96636 -0.0229819 0)
(0.96576 -0.021781 0)
(0.965136 -0.0205636 0)
(0.964467 -0.0193311 0)
(0.963718 -0.0180852 0)
(0.962836 -0.0168281 0)
(0.961749 -0.0155639 0)
(0.960377 -0.0142992 0)
(0.958644 -0.0130455 0)
(0.956505 -0.0118191 0)
(0.953983 -0.0106414 0)
(0.951195 -0.00953547 0)
(0.948379 -0.00852086 0)
(0.94587 -0.00760605 0)
(0.960166 -0.0368074 0)
(0.959103 -0.0359841 0)
(0.958132 -0.0351376 0)
(0.957237 -0.0342724 0)
(0.956413 -0.0333873 0)
(0.955663 -0.0324817 0)
(0.954998 -0.0315554 0)
(0.954438 -0.030608 0)
(0.954015 -0.0296391 0)
(0.953772 -0.0286477 0)
(0.953774 -0.0276324 0)
(0.954101 -0.0265895 0)
(0.954845 -0.0255124 0)
(0.956095 -0.0243889 0)
(0.957905 -0.0231996 0)
(0.960251 -0.0219179 0)
(0.962989 -0.0205118 0)
(0.965823 -0.0189511 0)
(0.968327 -0.017218 0)
(0.950838 -0.0477492 0)
(0.949937 -0.0461913 0)
(0.948995 -0.0445866 0)
(0.948035 -0.0429358 0)
(0.947072 -0.0412416 0)
(0.946112 -0.0395053 0)
(0.945156 -0.0377272 0)
(0.944197 -0.0359077 0)
(0.943215 -0.0340471 0)
(0.942172 -0.0321457 0)
(0.941009 -0.030204 0)
(0.939636 -0.0282242 0)
(0.937934 -0.0262115 0)
(0.935765 -0.0241772 0)
(0.933007 -0.0221409 0)
(0.9296 -0.0201328 0)
(0.925622 -0.0181919 0)
(0.921353 -0.0163589 0)
(0.91729 -0.0146634 0)
(0.940151 -0.0576177 0)
(0.938452 -0.0564057 0)
(0.93685 -0.0551402 0)
(0.935323 -0.0538269 0)
(0.933865 -0.0524651 0)
(0.932475 -0.0510554 0)
(0.931161 -0.0495989 0)
(0.929936 -0.0480969 0)
(0.928826 -0.0465511 0)
(0.927871 -0.0449632 0)
(0.927132 -0.0433353 0)
(0.926702 -0.0416688 0)
(0.926704 -0.0399631 0)
(0.927287 -0.0382132 0)
(0.928595 -0.0364053 0)
(0.930706 -0.0345136 0)
(0.933548 -0.0324987 0)
(0.936819 -0.0303137 0)
(0.93996 -0.0279188 0)
(0.929278 -0.0717754 0)
(0.927584 -0.0696625 0)
(0.925866 -0.0674715 0)
(0.924149 -0.0652054 0)
(0.922451 -0.0628672 0)
(0.920779 -0.0604581 0)
(0.91914 -0.0579783 0)
(0.917532 -0.0554286 0)
(0.915943 -0.0528095 0)
(0.914347 -0.050122 0)
(0.912697 -0.0473672 0)
(0.91091 -0.0445469 0)
(0.908858 -0.0416649 0)
(0.906367 -0.0387296 0)
(0.903237 -0.0357582 0)
(0.899295 -0.0327819 0)
(0.894504 -0.0298486 0)
(0.889089 -0.0270182 0)
(0.883643 -0.0243461 0)
(0.917291 -0.0834664 0)
(0.914619 -0.0817103 0)
(0.912066 -0.079845 0)
(0.909611 -0.0778812 0)
(0.907244 -0.0758243 0)
(0.904963 -0.0736816 0)
(0.902773 -0.0714617 0)
(0.900686 -0.0691729 0)
(0.89872 -0.0668236 0)
(0.896908 -0.0644217 0)
(0.895301 -0.0619744 0)
(0.893983 -0.059488 0)
(0.893078 -0.0569675 0)
(0.892763 -0.0544136 0)
(0.893249 -0.0518187 0)
(0.894724 -0.0491596 0)
(0.897245 -0.0463906 0)
(0.900575 -0.0434432 0)
(0.904077 -0.0402427 0)
(0.904616 -0.101584 0)
(0.901705 -0.0987509 0)
(0.89881 -0.095803 0)
(0.895964 -0.0927453 0)
(0.89319 -0.0895804 0)
(0.890506 -0.086307 0)
(0.887919 -0.0829235 0)
(0.885434 -0.0794287 0)
(0.883045 -0.0758218 0)
(0.880736 -0.0721029 0)
(0.87847 -0.0682732 0)
(0.87618 -0.0643347 0)
(0.873748 -0.0602916 0)
(0.870994 -0.0561516 0)
(0.867665 -0.0519313 0)
(0.863475 -0.0476643 0)
(0.858214 -0.043411 0)
(0.851955 -0.0392616 0)
(0.845283 -0.0353199 0)
(0.891248 -0.116675 0)
(0.88717 -0.114113 0)
(0.88327 -0.111326 0)
(0.879529 -0.108343 0)
(0.875938 -0.105181 0)
(0.872493 -0.101864 0)
(0.8692 -0.0984182 0)
(0.866065 -0.0948677 0)
(0.863105 -0.0912377 0)
(0.860342 -0.087552 0)
(0.857815 -0.0838332 0)
(0.855588 -0.0801024 0)
(0.853772 -0.0763785 0)
(0.852537 -0.0726765 0)
(0.852129 -0.0690029 0)
(0.852839 -0.0653457 0)
(0.854891 -0.0616585 0)
(0.858218 -0.0578457 0)
(0.86219 -0.0537677 0)
(0.876446 -0.139625 0)
(0.871697 -0.135714 0)
(0.867059 -0.131628 0)
(0.862569 -0.127361 0)
(0.858265 -0.122923 0)
(0.854179 -0.118311 0)
(0.850328 -0.113526 0)
(0.846722 -0.108572 0)
(0.843365 -0.103451 0)
(0.840249 -0.0981713 0)
(0.837349 -0.0927369 0)
(0.834614 -0.0871548 0)
(0.831947 -0.0814317 0)
(0.829181 -0.0755763 0)
(0.826041 -0.0696028 0)
(0.822142 -0.0635419 0)
(0.817054 -0.057462 0)
(0.810538 -0.0514884 0)
(0.802965 -0.0458072 0)
(0.86094 -0.160217 0)
(0.854683 -0.156378 0)
(0.848709 -0.152051 0)
(0.843034 -0.14734 0)
(0.837667 -0.142277 0)
(0.832606 -0.136921 0)
(0.827869 -0.131329 0)
(0.823468 -0.125553 0)
(0.819416 -0.119652 0)
(0.815726 -0.113681 0)
(0.812421 -0.107699 0)
(0.809538 -0.101762 0)
(0.807146 -0.095928 0)
(0.805379 -0.090251 0)
(0.804464 -0.0847786 0)
(0.804745 -0.0795413 0)
(0.80663 -0.0745248 0)
(0.810357 -0.0696383 0)
(0.815536 -0.0646667 0)
(0.843327 -0.189387 0)
(0.835606 -0.183694 0)
(0.828194 -0.177687 0)
(0.821145 -0.171285 0)
(0.814501 -0.164524 0)
(0.808349 -0.157424 0)
(0.80271 -0.150007 0)
(0.79762 -0.142317 0)
(0.793095 -0.134392 0)
(0.789142 -0.126275 0)
(0.785749 -0.118005 0)
(0.782882 -0.10962 0)
(0.780467 -0.101147 0)
(0.778362 -0.0926105 0)
(0.776306 -0.0840296 0)
(0.773861 -0.0754272 0)
(0.770383 -0.0668685 0)
(0.76517 -0.0584879 0)
(0.757948 -0.0505595 0)
(0.824683 -0.218078 0)
(0.814637 -0.212186 0)
(0.80511 -0.205251 0)
(0.796116 -0.19753 0)
(0.787806 -0.189125 0)
(0.780165 -0.180121 0)
(0.773278 -0.170652 0)
(0.767173 -0.16082 0)
(0.761885 -0.150747 0)
(0.757422 -0.140554 0)
(0.753791 -0.130372 0)
(0.750993 -0.120337 0)
(0.749041 -0.11059 0)
(0.747985 -0.101276 0)
(0.747966 -0.0925395 0)
(0.749275 -0.0845163 0)
(0.752409 -0.0772809 0)
(0.757946 -0.0708447 0)
(0.766157 -0.0649896 0)
(0.803433 -0.256358 0)
(0.790653 -0.247893 0)
(0.778346 -0.238609 0)
(0.766934 -0.228453 0)
(0.756328 -0.217382 0)
(0.746788 -0.205571 0)
(0.738355 -0.193086 0)
(0.731123 -0.180085 0)
(0.725129 -0.166712 0)
(0.720415 -0.153118 0)
(0.716974 -0.139452 0)
(0.714785 -0.125846 0)
(0.713779 -0.112415 0)
(0.713826 -0.0992476 0)
(0.714681 -0.0864045 0)
(0.715892 -0.0739013 0)
(0.716661 -0.0618172 0)
(0.71588 -0.0502303 0)
(0.712006 -0.0394245 0)
(0.781417 -0.296834 0)
(0.764239 -0.287624 0)
(0.748432 -0.27659 0)
(0.733427 -0.263716 0)
(0.719903 -0.249549 0)
(0.707806 -0.234119 0)
(0.697354 -0.217733 0)
(0.688623 -0.200619 0)
(0.68171 -0.183019 0)
(0.67662 -0.165197 0)
(0.673372 -0.147418 0)
(0.671922 -0.129959 0)
(0.672218 -0.113111 0)
(0.674199 -0.0971839 0)
(0.677846 -0.0824966 0)
(0.683276 -0.0694327 0)
(0.690955 -0.0582194 0)
(0.70144 -0.0491908 0)
(0.716235 -0.0424082 0)
(0.755748 -0.348407 0)
(0.734468 -0.336391 0)
(0.713266 -0.32162 0)
(0.694133 -0.305204 0)
(0.676644 -0.286627 0)
(0.661334 -0.266458 0)
(0.648329 -0.24496 0)
(0.637822 -0.222444 0)
(0.629836 -0.199297 0)
(0.624483 -0.175851 0)
(0.621726 -0.15245 0)
(0.62155 -0.129432 0)
(0.623871 -0.107106 0)
(0.628554 -0.0857462 0)
(0.635353 -0.0655904 0)
(0.643841 -0.0466583 0)
(0.65294 -0.0292005 0)
(0.661719 -0.0131013 0)
(0.666602 0.00157337 0)
(0.731837 -0.406396 0)
(0.701417 -0.391632 0)
(0.674461 -0.374324 0)
(0.649165 -0.352989 0)
(0.626741 -0.329045 0)
(0.607376 -0.30287 0)
(0.591335 -0.27483 0)
(0.578643 -0.2456 0)
(0.569533 -0.215554 0)
(0.563889 -0.185183 0)
(0.561787 -0.154935 0)
(0.563149 -0.125253 0)
(0.567915 -0.0966198 0)
(0.57597 -0.0695684 0)
(0.587184 -0.0446401 0)
(0.60135 -0.0227811 0)
(0.619221 -0.00435367 0)
(0.640132 0.00934894 0)
(0.667864 0.0172878 0)
(0.701057 -0.476248 0)
(0.664391 -0.459337 0)
(0.628505 -0.435818 0)
(0.596156 -0.408288 0)
(0.567956 -0.377372 0)
(0.544076 -0.343225 0)
(0.524568 -0.307302 0)
(0.509838 -0.269842 0)
(0.49945 -0.231602 0)