/*--------------------------------*- C++ -*----------------------------------*\
  =========                 |
  \\      /  F ield         | OpenFOAM: The Open Source CFD Toolbox
   \\    /   O peration     | Website:  https://openfoam.org
    \\  /    A nd           | Version:  10
     \\/     M anipulation  |
\*---------------------------------------------------------------------------*/
FoamFile
{
    format      ascii;
    class       volVectorField;
    location    "0";
    object      U;
}
// * * * * * * * * * * * * * * * * * * * * * * * * * * * * * * * * * * * * * //

dimensions      [0 1 -1 0 0 0 0];

internalField   nonuniform List<vector> 
18483
(
(0.999998 -0.000197268 0)
(0.999997 -0.000700248 0)
(0.999997 -0.00110415 0)
(0.999996 -0.00152684 0)
(0.999996 -0.00191027 0)
(0.999995 -0.0022595 0)
(0.999994 -0.00255746 0)
(0.999993 -0.00279479 0)
(0.999991 -0.00296567 0)
(0.999989 -0.00306881 0)
(0.999991 -0.00310786 0)
(0.999997 -0.00309595 0)
(1.00001 -0.00305129 0)
(1.00002 -0.00303041 0)
(1.00004 -0.00309695 0)
(1.00003 -0.00327296 0)
(0.999943 -0.00352135 0)
(0.99952 -0.00374078 0)
(0.998125 -0.0038362 0)
(0.995112 -0.00375866 0)
(0.991141 -0.00353534 0)
(0.988549 -0.00328896 0)
(0.988921 -0.00305703 0)
(0.991353 -0.00279135 0)
(0.9941 -0.00250957 0)
(0.996259 -0.00224791 0)
(0.997713 -0.00202282 0)
(0.998627 -0.0018371 0)
(0.999184 -0.00168646 0)
(1.00061 -0.000595109 0)
(1.00062 -0.00210048 0)
(1.00067 -0.00331474 0)
(1.0007 -0.00459738 0)
(1.00072 -0.00576741 0)
(1.00071 -0.00684661 0)
(1.00066 -0.00777958 0)
(1.00057 -0.00853388 0)
(1.00045 -0.0090812 0)
(1.00029 -0.00940976 0)
(1.0001 -0.00952797 0)
(0.999912 -0.00948009 0)
(0.999764 -0.00931458 0)
(0.999688 -0.00895698 0)
(0.999698 -0.00830718 0)
(0.999744 -0.00732378 0)
(0.999753 -0.00606206 0)
(0.999853 -0.00474567 0)
(1.00063 -0.00359418 0)
(1.00296 -0.00279268 0)
(1.00658 -0.00244633 0)
(1.00908 -0.00234066 0)
(1.00839 -0.002242 0)
(1.0054 -0.00216248 0)
(1.00225 -0.00208517 0)
(0.999952 -0.0019716 0)
(0.998534 -0.00181898 0)
(0.997711 -0.00163872 0)
(0.997242 -0.00144615 0)
(1.0018 -0.000971358 0)
(1.00185 -0.00341141 0)
(1.00199 -0.00539177 0)
(1.00209 -0.00750598 0)
(1.00216 -0.00945147 0)
(1.00215 -0.0112762 0)
(1.00203 -0.0128866 0)
(1.00179 -0.014232 0)
(1.00141 -0.0152663 0)
(1.00091 -0.0159736 0)
(1.00032 -0.0163501 0)
(0.999691 -0.0163939 0)
(0.999105 -0.0161241 0)
(0.998581 -0.0155888 0)
(0.998033 -0.0149479 0)
(0.997382 -0.0144987 0)
(0.99663 -0.0143426 0)
(0.995706 -0.0142941 0)
(0.994216 -0.0141475 0)
(0.991575 -0.0137101 0)
(0.988024 -0.0128329 0)
(0.985405 -0.0116692 0)
(0.985445 -0.0105705 0)
(0.987486 -0.00960424 0)
(0.989708 -0.00872524 0)
(0.991249 -0.00796428 0)
(0.992134 -0.00732583 0)
(0.9926 -0.0067968 0)
(0.992831 -0.00636111 0)
(1.00328 -0.00131087 0)
(1.0034 -0.00458649 0)
(1.00364 -0.00726407 0)
(1.00385 -0.0101534 0)
(1.00401 -0.0128421 0)
(1.00402 -0.0154119 0)
(1.00384 -0.0177345 0)
(1.00343 -0.0197444 0)
(1.00279 -0.0213653 0)
(1.00196 -0.0225485 0)
(1.00097 -0.0232575 0)
(0.999901 -0.0234832 0)
(0.998782 -0.0232998 0)
(0.997626 -0.0228487 0)
(0.996467 -0.0222067 0)
(0.995389 -0.0211647 0)
(0.994489 -0.0194754 0)
(0.993878 -0.0173021 0)
(0.993959 -0.0150827 0)
(0.995449 -0.0132135 0)
(0.998332 -0.0119429 0)
(1.00064 -0.0112297 0)
(1.00017 -0.0106986 0)
(0.997318 -0.0101783 0)
(0.99419 -0.00971701 0)
(0.991924 -0.00928052 0)
(0.990529 -0.00884552 0)
(0.989712 -0.00841539 0)
(0.989231 -0.00799819 0)
(1.00485 -0.00160588 0)
(1.00505 -0.00560344 0)
(1.00542 -0.00889642 0)
(1.00577 -0.0124866 0)
(1.00605 -0.0158695 0)
(1.00614 -0.0191631 0)
(1.00595 -0.0222061 0)
(1.00543 -0.0249127 0)
(1.00458 -0.0271683 0)
(1.0034 -0.0288948 0)
(1.00195 -0.0300579 0)
(1.00026 -0.0306787 0)
(0.998407 -0.0308322 0)
(0.996497 -0.0305572 0)
(0.994624 -0.0298603 0)
(0.992797 -0.0289054 0)
(0.990904 -0.0280427 0)
(0.988906 -0.0274461 0)
(0.986728 -0.026859 0)
(0.98404 -0.0258772 0)
(0.980731 -0.0242941 0)
(0.977887 -0.0221902 0)
(0.977193 -0.0200474 0)
(0.978586 -0.0182054 0)
(0.980363 -0.0165719 0)
(0.981484 -0.0151248 0)
(0.981963 -0.0138751 0)
(0.982066 -0.0128027 0)
(0.981986 -0.0118879 0)
(1.00647 -0.00185764 0)
(1.00677 -0.00646797 0)
(1.00729 -0.0102957 0)
(1.00782 -0.0145102 0)
(1.00828 -0.0185324 0)
(1.00849 -0.0225198 0)
(1.00835 -0.0262825 0)
(1.00777 -0.0297234 0)
(1.0067 -0.032703 0)
(1.00514 -0.0351283 0)
(1.00315 -0.0369508 0)
(1.00082 -0.0381503 0)
(0.998323 -0.0387177 0)
(0.995788 -0.0386743 0)
(0.993266 -0.0381157 0)
(0.99077 -0.0371869 0)
(0.988358 -0.0358275 0)
(0.98611 -0.033821 0)
(0.984208 -0.031246 0)
(0.983264 -0.028534 0)
(0.983945 -0.0261589 0)
(0.985417 -0.0244256 0)
(0.985428 -0.0230993 0)
(0.983208 -0.0218093 0)
(0.980278 -0.0206416 0)
(0.97798 -0.0196321 0)
(0.976457 -0.0187111 0)
(0.97545 -0.01786 0)
(0.974749 -0.0170736 0)
(1.00815 -0.00207151 0)
(1.00856 -0.00719882 0)
(1.00925 -0.0114888 0)
(1.00999 -0.0162565 0)
(1.01067 -0.0208646 0)
(1.01107 -0.0255148 0)
(1.01105 -0.0299991 0)
(1.01047 -0.0342175 0)
(1.00926 -0.0380059 0)
(1.00743 -0.0412324 0)
(1.00505 -0.0437812 0)
(1.00226 -0.0455686 0)
(0.99922 -0.0465677 0)
(0.996031 -0.0468341 0)
(0.992758 -0.046458 0)
(0.989453 -0.0455605 0)
(0.986084 -0.0444011 0)
(0.98245 -0.0433111 0)
(0.978417 -0.042372 0)
(0.974064 -0.041293 0)
(0.96954 -0.0396872 0)
(0.965407 -0.0373686 0)
(0.963093 -0.034684 0)
(0.963288 -0.0321823 0)
(0.964606 -0.0298861 0)
(0.965525 -0.0277248 0)
(0.965793 -0.0257847 0)
(0.965678 -0.0240868 0)
(0.965393 -0.0226224 0)
(1.00986 -0.0022525 0)
(1.01038 -0.00781402 0)
(1.01126 -0.0125018 0)
(1.01224 -0.0177569 0)
(1.01319 -0.0228978 0)
(1.01383 -0.0281749 0)
(1.01401 -0.0333684 0)
(1.01353 -0.0383777 0)
(1.01231 -0.0430065 0)
(1.01032 -0.0470805 0)
(1.00761 -0.0504388 0)
(1.00428 -0.0529771 0)
(1.00047 -0.0546674 0)
(0.99632 -0.0555365 0)
(0.99201 -0.0556353 0)
(0.987654 -0.0550601 0)
(0.983293 -0.0538937 0)
(0.978912 -0.0520098 0)
(0.974663 -0.0493021 0)
(0.971229 -0.0461185 0)
(0.969564 -0.0430881 0)
(0.969548 -0.0407106 0)
(0.969207 -0.0388946 0)
(0.966811 -0.0371161 0)
(0.963183 -0.0353693 0)
(0.960083 -0.0338398 0)
(0.957955 -0.032448 0)
(0.956487 -0.0311523 0)
(0.955413 -0.0299533 0)
(1.01153 -0.00240397 0)
(1.01218 -0.00832597 0)
(1.01326 -0.0133522 0)
(1.0145 -0.0190312 0)
(1.01575 -0.0246493 0)
(1.0167 -0.0305073 0)
(1.01714 -0.0363801 0)
(1.01685 -0.0421734 0)
(1.0157 -0.0476726 0)
(1.01359 -0.0526865 0)
(1.01053 -0.0570321 0)
(1.0066 -0.0605639 0)
(1.002 -0.0631708 0)
(0.996969 -0.0647832 0)
(0.991733 -0.0653818 0)
(0.986436 -0.0649809 0)
(0.981115 -0.0637422 0)
(0.975657 -0.0621345 0)
(0.969963 -0.0607137 0)
(0.964159 -0.0595752 0)
(0.958243 -0.0582387 0)
(0.952259 -0.0561214 0)
(0.947403 -0.0532066 0)
(0.945317 -0.0501766 0)
(0.945469 -0.0473324 0)
(0.945819 -0.0445231 0)
(0.945576 -0.0418853 0)
(0.944998 -0.0395288 0)
(0.944324 -0.0374606 0)
(1.01315 -0.00252809 0)
(1.01392 -0.00874278 0)
(1.0152 -0.0140512 0)
(1.01672 -0.0200914 0)
(1.01828 -0.0261281 0)
(1.01958 -0.032513 0)
(1.02035 -0.0390253 0)
(1.02033 -0.0455879 0)
(1.01932 -0.0519846 0)
(1.0172 -0.0580129 0)
(1.01395 -0.0634488 0)
(1.00967 -0.0680751 0)
(1.00454 -0.0716972 0)
(0.998765 -0.0741903 0)
(0.992546 -0.0755307 0)
(0.986025 -0.0757626 0)
(0.979312 -0.0750278 0)
(0.972604 -0.0734951 0)
(0.966284 -0.0711269 0)
(0.960872 -0.0679088 0)
(0.956954 -0.0642997 0)
(0.954807 -0.0610469 0)
(0.95318 -0.0585086 0)
(0.949835 -0.0561713 0)
(0.94466 -0.0537185 0)
(0.939832 -0.0514798 0)
(0.936433 -0.0494578 0)
(0.934049 -0.0475426 0)
(0.932259 -0.0457533 0)
(1.01467 -0.0026267 0)
(1.01557 -0.00907096 0)
(1.01705 -0.0146078 0)
(1.01885 -0.0209478 0)
(1.02075 -0.0273426 0)
(1.02243 -0.034195 0)
(1.02358 -0.0412958 0)
(1.02391 -0.0485915 0)
(1.02317 -0.0558673 0)
(1.02123 -0.0629077 0)
(1.018 -0.0694526 0)
(1.01355 -0.0752496 0)
(1.00796 -0.0800801 0)
(1.00138 -0.0837831 0)
(0.994043 -0.0862739 0)
(0.986213 -0.0875084 0)
(0.978214 -0.0874885 0)
(0.97037 -0.0864502 0)
(0.962812 -0.0850026 0)
(0.955349 -0.0837349 0)
(0.947587 -0.0824964 0)
(0.939233 -0.0804723 0)
(0.931176 -0.077206 0)
(0.925794 -0.0733718 0)
(0.923902 -0.0697252 0)
(0.923207 -0.0661247 0)
(0.921979 -0.0626057 0)
(0.920441 -0.0594165 0)
(0.918952 -0.0565835 0)
(1.01609 -0.0027019 0)
(1.01711 -0.0093179 0)
(1.01879 -0.0150327 0)
(1.02087 -0.021614 0)
(1.02312 -0.0283064 0)
(1.0252 -0.0355624 0)
(1.02678 -0.0431884 0)
(1.02753 -0.0511564 0)
(1.02719 -0.059259 0)
(1.02553 -0.0672834 0)
(1.02244 -0.0749653 0)
(1.01786 -0.0820452 0)
(1.01187 -0.088276 0)
(1.00461 -0.0934168 0)
(0.996357 -0.0972667 0)
(0.987425 -0.0997044 0)
(0.978192 -0.100741 0)
(0.969041 -0.100554 0)
(0.960301 -0.0992265 0)
(0.952251 -0.0965647 0)
(0.945295 -0.0926302 0)
(0.940053 -0.0883173 0)
(0.936221 -0.0847037 0)
(0.931503 -0.0816505 0)
(0.924426 -0.0783865 0)
(0.917099 -0.0751775 0)
(0.911727 -0.072303 0)
(0.907958 -0.0695499 0)
(0.905068 -0.0669392 0)
(1.0174 -0.00275635 0)
(1.01853 -0.00949278 0)
(1.02041 -0.0153401 0)
(1.02276 -0.0221084 0)
(1.02537 -0.0290398 0)
(1.02786 -0.0366341 0)
(1.0299 -0.0447162 0)
(1.03112 -0.0532864 0)
(1.03123 -0.0621566 0)
(1.02994 -0.0711332 0)
(1.02707 -0.0799593 0)
(1.02254 -0.0883603 0)
(1.01641 -0.0960447 0)
(1.0088 -0.102715 0)
(0.999885 -0.108123 0)
(0.989953 -0.112127 0)
(0.979437 -0.114677 0)
(0.968872 -0.115797 0)
(0.958571 -0.115674 0)
(0.948335 -0.11488 0)
(0.937716 -0.113888 0)
(0.926346 -0.112252 0)
(0.91464 -0.109003 0)
(0.905047 -0.104308 0)
(0.899984 -0.0995041 0)
(0.897714 -0.0949127 0)
(0.895137 -0.0902706 0)
(0.892126 -0.0859708 0)
(0.889373 -0.0821458 0)
(1.01859 -0.00279315 0)
(1.01983 -0.00960621 0)
(1.0219 -0.0155462 0)
(1.02452 -0.0224533 0)
(1.02747 -0.0295695 0)
(1.03038 -0.0374399 0)
(1.03289 -0.0459095 0)
(1.03462 -0.05501 0)
(1.03522 -0.0645795 0)
(1.03439 -0.0744463 0)
(1.03192 -0.0843577 0)
(1.02768 -0.0940286 0)
(1.02169 -0.103157 0)
(1.01394 -0.111447 0)
(1.00456 -0.11863 0)
(0.993807 -0.124486 0)
(0.982203 -0.12883 0)
(0.970324 -0.131533 0)
(0.958477 -0.132501 0)
(0.946803 -0.131538 0)
(0.93576 -0.128441 0)
(0.926256 -0.123745 0)
(0.91892 -0.119018 0)
(0.912121 -0.115245 0)
(0.902954 -0.111468 0)
(0.892351 -0.107249 0)
(0.883968 -0.10332 0)
(0.878176 -0.099554 0)
(0.873697 -0.0958508 0)
(1.01968 -0.00281555 0)
(1.02102 -0.00966922 0)
(1.02326 -0.0156684 0)
(1.02614 -0.0226725 0)
(1.02942 -0.0299254 0)
(1.03274 -0.0380146 0)
(1.03572 -0.0468059 0)
(1.03798 -0.0563617 0)
(1.03914 -0.066547 0)
(1.03887 -0.0772117 0)
(1.03692 -0.0881148 0)
(1.03313 -0.0989857 0)
(1.0274 -0.109542 0)
(1.0197 -0.119494 0)
(1.01009 -0.128539 0)
(0.99884 -0.13638 0)
(0.986404 -0.14275 0)
(0.973284 -0.147439 0)
(0.959752 -0.150313 0)
(0.94579 -0.151596 0)
(0.931231 -0.151982 0)
(0.915917 -0.151684 0)
(0.899875 -0.14962 0)
(0.884904 -0.144826 0)
(0.874751 -0.138701 0)
(0.869675 -0.13283 0)
(0.865306 -0.12684 0)
(0.860143 -0.120978 0)
(0.855459 -0.115748 0)
(1.02067 -0.00282666 0)
(1.02211 -0.00969241 0)
(1.02451 -0.0157234 0)
(1.02763 -0.0227899 0)
(1.03123 -0.0301379 0)
(1.03494 -0.0383946 0)
(1.0384 -0.0474454 0)
(1.04119 -0.057381 0)
(1.04293 -0.068094 0)
(1.04327 -0.0794608 0)
(1.0419 -0.091264 0)
(1.03861 -0.103258 0)
(1.03327 -0.115176 0)
(1.02583 -0.126732 0)
(1.01632 -0.137614 0)
(1.0049 -0.147511 0)
(0.991912 -0.156118 0)
(0.977801 -0.163119 0)
(0.96286 -0.168168 0)
(0.947228 -0.170865 0)
(0.931399 -0.170663 0)
(0.916475 -0.167385 0)
(0.903833 -0.162394 0)
(0.89339 -0.158041 0)
(0.881658 -0.154306 0)
(0.866963 -0.149481 0)
(0.853725 -0.144266 0)
(0.844554 -0.139279 0)
(0.837576 -0.134117 0)
(1.02157 -0.00282921 0)
(1.02309 -0.00968534 0)
(1.02565 -0.0157267 0)
(1.02899 -0.0228274 0)
(1.03289 -0.0302353 0)
(1.03698 -0.0386152 0)
(1.04089 -0.0478689 0)
(1.0442 -0.0581141 0)
(1.04653 -0.0692738 0)
(1.04748 -0.0812534 0)
(1.04672 -0.0938613 0)
(1.04402 -0.106871 0)
(1.03924 -0.120029 0)
(1.0323 -0.133067 0)
(1.02316 -0.145707 0)
(1.01187 -0.157659 0)
(0.99869 -0.16858 0)
(0.983976 -0.178076 0)
(0.967913 -0.185727 0)
(0.950435 -0.191263 0)
(0.931539 -0.195032 0)
(0.911382 -0.197776 0)
(0.890107 -0.198898 0)
(0.868548 -0.196167 0)
(0.850603 -0.18956 0)
(0.839878 -0.182178 0)
(0.832614 -0.174814 0)
(0.824295 -0.166924 0)
(0.816373 -0.159601 0)
(1.02238 -0.00282553 0)
(1.02398 -0.00965617 0)
(1.02668 -0.0156914 0)
(1.03022 -0.0228042 0)
(1.03441 -0.0302436 0)
(1.03885 -0.038709 0)
(1.04319 -0.0481164 0)
(1.04702 -0.0586097 0)
(1.04992 -0.0701425 0)
(1.05148 -0.0826474 0)
(1.05137 -0.095954 0)
(1.04935 -0.109853 0)
(1.04526 -0.124108 0)
(1.03897 -0.13849 0)
(1.03038 -0.152767 0)
(1.0195 -0.166677 0)
(1.0065 -0.179893 0)
(0.991583 -0.192028 0)
(0.974805 -0.202636 0)
(0.956053 -0.211132 0)
(0.935658 -0.216632 0)
(0.914842 -0.218015 0)
(0.895342 -0.215256 0)
(0.878688 -0.211099 0)
(0.862928 -0.20818 0)
(0.843449 -0.204279 0)
(0.82271 -0.198052 0)
(0.807209 -0.191591 0)
(0.795944 -0.184688 0)
(1.02312 -0.00281746 0)
(1.02479 -0.00961154 0)
(1.02762 -0.0156288 0)
(1.03135 -0.0227362 0)
(1.03579 -0.0301848 0)
(1.04057 -0.0387051 0)
(1.04532 -0.0482239 0)
(1.04963 -0.0589111 0)
(1.05309 -0.0707492 0)
(1.05527 -0.0836936 0)
(1.05584 -0.0975932 0)
(1.05454 -0.112258 0)
(1.05117 -0.127477 0)
(1.04559 -0.143055 0)
(1.0377 -0.158799 0)
(1.02748 -0.174502 0)
(1.01499 -0.189902 0)
(1.00034 -0.204665 0)
(0.983412 -0.218331 0)
(0.963898 -0.230271 0)
(0.941616 -0.240031 0)
(0.91678 -0.248144 0)
(0.889784 -0.255135 0)
(0.860979 -0.258601 0)
(0.832646 -0.254975 0)
(0.811279 -0.246689 0)
(0.798011 -0.238172 0)
(0.78514 -0.228501 0)
(0.771593 -0.218291 0)
(1.02379 -0.00280643 0)
(1.02552 -0.00955674 0)
(1.02847 -0.0155476 0)
(1.03237 -0.0226366 0)
(1.03706 -0.0300773 0)
(1.04214 -0.0386279 0)
(1.04727 -0.0482225 0)
(1.05205 -0.0590569 0)
(1.05605 -0.0711391 0)
(1.05884 -0.0844456 0)
(1.06007 -0.0988454 0)
(1.05947 -0.114169 0)
(1.05682 -0.130223 0)
(1.05201 -0.146835 0)
(1.04493 -0.163851 0)
(1.03556 -0.181135 0)
(1.0239 -0.198526 0)
(1.00995 -0.21578 0)
(0.99343 -0.232522 0)
(0.973795 -0.248172 0)
(0.95078 -0.261785 0)
(0.92517 -0.271752 0)
(0.898742 -0.276067 0)
(0.87359 -0.275233 0)
(0.850908 -0.274213 0)
(0.826052 -0.274075 0)
(0.795624 -0.269469 0)
(0.768386 -0.26168 0)
(0.749123 -0.253223 0)
(1.02439 -0.00279357 0)
(1.02618 -0.00949587 0)
(1.02924 -0.0154551 0)
(1.0333 -0.022516 0)
(1.03821 -0.0299361 0)
(1.04357 -0.0384977 0)
(1.04905 -0.0481387 0)
(1.05427 -0.0590807 0)
(1.05878 -0.0713546 0)
(1.06215 -0.0849576 0)
(1.06401 -0.0997782 0)
(1.06408 -0.115662 0)
(1.06216 -0.132425 0)
(1.05815 -0.149909 0)
(1.05197 -0.167999 0)
(1.04358 -0.186632 0)
(1.03298 -0.205761 0)
(1.0201 -0.225274 0)
(1.0045 -0.244911 0)
(0.98547 -0.264178 0)
(0.962384 -0.282251 0)
(0.935023 -0.298629 0)
(0.903527 -0.314246 0)
(0.868095 -0.328719 0)
(0.829023 -0.335786 0)
(0.791598 -0.331165 0)
(0.765003 -0.322107 0)
(0.74501 -0.312348 0)
(0.722782 -0.299317 0)
(1.02493 -0.00277971 0)
(1.02677 -0.0094321 0)
(1.02993 -0.0153566 0)
(1.03412 -0.0223831 0)
(1.03925 -0.0297734 0)
(1.04486 -0.0383308 0)
(1.05067 -0.047995 0)
(1.05629 -0.0590126 0)
(1.06127 -0.0714349 0)
(1.06519 -0.0852785 0)
(1.06765 -0.100449 0)
(1.06838 -0.116802 0)
(1.06719 -0.134157 0)
(1.06399 -0.152367 0)
(1.05872 -0.171348 0)
(1.05136 -0.191098 0)
(1.04197 -0.211686 0)
(1.03043 -0.233153 0)
(1.0162 -0.255389 0)
(0.998391 -0.278109 0)
(0.976164 -0.300718 0)
(0.949234 -0.3219 0)
(0.918554 -0.338965 0)
(0.885809 -0.348492 0)
(0.853115 -0.35229 0)
(0.820718 -0.358526 0)
(0.780981 -0.362854 0)
(0.73554 -0.356882 0)
(0.699844 -0.347382 0)
(1.02541 -0.00276549 0)
(1.0273 -0.00936781 0)
(1.03055 -0.0152563 0)
(1.03486 -0.0222442 0)
(1.04017 -0.0295986 0)
(1.04601 -0.0381407 0)
(1.05213 -0.04781 0)
(1.05812 -0.0588778 0)
(1.06354 -0.0714121 0)
(1.06797 -0.0854481 0)
(1.07101 -0.100906 0)
(1.07238 -0.117648 0)
(1.0719 -0.135495 0)
(1.06947 -0.154305 0)
(1.06508 -0.174013 0)
(1.05876 -0.194663 0)
(1.05063 -0.216423 0)
(1.04062 -0.239495 0)
(1.02812 -0.263949 0)
(1.01209 -0.289697 0)
(0.991627 -0.316398 0)
(0.965861 -0.343184 0)
(0.933852 -0.369772 0)
(0.895138 -0.398019 0)
(0.848947 -0.42566 0)
(0.794818 -0.438753 0)
(0.743758 -0.43354 0)
(0.7076 -0.425376 0)
(0.67416 -0.413059 0)
(1.02584 -0.00275139 0)
(1.02777 -0.00930475 0)
(1.0311 -0.0151573 0)
(1.03552 -0.0221044 0)
(1.041 -0.0294194 0)
(1.04704 -0.0379379 0)
(1.05344 -0.0475987 0)
(1.05977 -0.0586965 0)
(1.0656 -0.071313 0)
(1.07051 -0.0855004 0)
(1.07409 -0.101192 0)
(1.07607 -0.118256 0)
(1.07623 -0.136512 0)
(1.07453 -0.155815 0)
(1.07098 -0.176105 0)
(1.06569 -0.197459 0)
(1.05884 -0.220123 0)
(1.05043 -0.244445 0)
(1.03988 -0.270691 0)
(1.02606 -0.298982 0)
(1.00795 -0.329351 0)
(0.98461 -0.361499 0)
(0.955178 -0.393798 0)
(0.919958 -0.421908 0)
(0.87977 -0.44024 0)
(0.836707 -0.454085 0)
(0.788621 -0.475669 0)
(0.724027 -0.48642 0)
(0.655934 -0.477376 0)
(1.02622 -0.00273771 0)
(1.02819 -0.00924416 0)
(1.03158 -0.0150615 0)
(1.0361 -0.0219674 0)
(1.04173 -0.0292412 0)
(1.04796 -0.0377307 0)
(1.05461 -0.0473731 0)
(1.06125 -0.0584851 0)
(1.06746 -0.0711592 0)
(1.07281 -0.0854644 0)
(1.07689 -0.101345 0)
(1.07942 -0.118676 0)
(1.08019 -0.137271 0)
(1.07916 -0.156974 0)
(1.0764 -0.177723 0)
(1.07209 -0.199613 0)
(1.06648 -0.222947 0)
(1.05967 -0.248183 0)
(1.05117 -0.275786 0)
(1.03986 -0.306111 0)
(1.02459 -0.339418 0)
(1.00465 -0.375855 0)
(0.978454 -0.414904 0)
(0.942828 -0.456784 0)
(0.896596 -0.506153 0)
(0.837457 -0.558489 0)
(0.759505 -0.583237 0)
(0.682676 -0.578551 0)
(0.626511 -0.572323 0)
(1.02656 -0.00272469 0)
(1.02856 -0.0091869 0)
(1.03201 -0.0149705 0)
(1.03662 -0.0218359 0)
(1.04238 -0.0290684 0)
(1.04877 -0.0375254 0)
(1.05565 -0.0471426 0)
(1.06257 -0.058257 0)
(1.06912 -0.0709695 0)
(1.07487 -0.0853654 0)
(1.07942 -0.1014 0)
(1.08244 -0.118949 0)
(1.08378 -0.137824 0)
(1.08337 -0.157852 0)
(1.08134 -0.178957 0)
(1.07794 -0.201243 0)
(1.07351 -0.225052 0)
(1.06824 -0.250918 0)
(1.06175 -0.279463 0)
(1.05308 -0.311298 0)
(1.04102 -0.346885 0)
(1.02476 -0.386799 0)
(1.00337 -0.431808 0)
(0.974378 -0.480459 0)
(0.935796 -0.525488 0)
(0.887282 -0.557853 0)
(0.831184 -0.594608 0)
(0.754733 -0.652005 0)
(0.638998 -0.668224 0)
(1.02685 -0.00271246 0)
(1.02889 -0.00913351 0)
(1.03239 -0.0148853 0)
(1.03708 -0.0217116 0)
(1.04296 -0.0289036 0)
(1.0495 -0.0373265 0)
(1.05658 -0.0469144 0)
(1.06374 -0.0580224 0)
(1.0706 -0.0707585 0)
(1.07672 -0.0852234 0)
(1.08168 -0.101381 0)
(1.08517 -0.119111 0)
(1.08702 -0.138215 0)
(1.08718 -0.158504 0)
(1.08582 -0.179885 0)
(1.08323 -0.202455 0)
(1.07989 -0.226578 0)
(1.07606 -0.252844 0)
(1.07147 -0.281972 0)
(1.06539 -0.3148 0)
(1.05677 -0.352075 0)
(1.04456 -0.394434 0)
(1.02856 -0.443154 0)
(1.00642 -0.499229 0)
(0.969602 -0.563246 0)
(0.917117 -0.647398 0)
(0.849148 -0.75337 0)
(0.728408 -0.811303 0)
(0.574933 -0.804632 0)
(1.02712 -0.00270112 0)
(1.02918 -0.0090843 0)
(1.03273 -0.0148065 0)
(1.03748 -0.0215958 0)
(1.04346 -0.0287491 0)
(1.05013 -0.0371375 0)
(1.0574 -0.0466939 0)
(1.06478 -0.0577894 0)
(1.07192 -0.070538 0)
(1.07836 -0.0850545 0)
(1.0837 -0.10131 0)
(1.08762 -0.119188 0)
(1.08993 -0.138481 0)
(1.09061 -0.158982 0)
(1.08983 -0.180574 0)
(1.08798 -0.20334 0)
(1.0856 -0.22765 0)
(1.0831 -0.254135 0)
(1.08029 -0.283578 0)
(1.07659 -0.31694 0)
(1.07137 -0.355288 0)
(1.06354 -0.399385 0)
(1.0525 -0.450484 0)
(1.03821 -0.512285 0)
(1.01658 -0.585768 0)
(0.980781 -0.655904 0)
(0.925484 -0.708412 0)
(0.855296 -0.807754 0)
(0.704631 -0.958755 0)
(1.02735 -0.0026907 0)
(1.02943 -0.0090394 0)
(1.03302 -0.0147342 0)
(1.03784 -0.0214891 0)
(1.04391 -0.0286059 0)
(1.0507 -0.0369605 0)
(1.05812 -0.0464848 0)
(1.0657 -0.0575637 0)
(1.07309 -0.0703164 0)
(1.07983 -0.0848708 0)
(1.0855 -0.101205 0)
(1.0898 -0.119203 0)
(1.09252 -0.138651 0)
(1.09365 -0.159323 0)
(1.0934 -0.181078 0)
(1.0922 -0.203974 0)
(1.09068 -0.228372 0)
(1.08937 -0.254933 0)
(1.08819 -0.284491 0)
(1.08664 -0.318041 0)
(1.0845 -0.356867 0)
(1.08111 -0.402084 0)
(1.07527 -0.454534 0)
(1.06856 -0.517901 0)
(1.06004 -0.596743 0)
(1.0309 -0.686765 0)
(0.980172 -0.819585 0)
(0.923517 -1.06046 0)
(0.670496 -1.17027 0)
(0.999519 -0.00156322 0)
(0.999726 -0.00145176 0)
(0.999838 -0.00134116 0)
(0.999857 -0.00123067 0)
(0.999777 -0.00111943 0)
(0.999584 -0.00100625 0)
(0.999256 -0.000889978 0)
(0.998766 -0.000769602 0)
(0.998084 -0.000644401 0)
(0.997184 -0.000514113 0)
(0.99605 -0.000379146 0)
(0.994685 -0.000240749 0)
(0.993113 -0.000101075 0)
(0.991392 3.68917e-05 0)
(0.98961 0.00016961 0)
(0.987882 0.000293432 0)
(0.986341 0.000405179 0)
(0.985121 0.000502731 0)
(0.98434 0.000585502 0)
(0.996971 -0.00125487 0)
(0.996803 -0.00106318 0)
(0.996705 -0.000864568 0)
(0.99667 -0.000662202 0)
(0.996699 -0.000457786 0)
(0.996808 -0.000253345 0)
(0.997018 -5.12589e-05 0)
(0.997363 0.000145883 0)
(0.99788 0.000335401 0)
(0.998609 0.000514775 0)
(0.999586 0.000682041 0)
(1.00083 0.000836262 0)
(1.00234 0.000977991 0)
(1.00408 0.00110959 0)
(1.00596 0.00123529 0)
(1.00788 0.00136083 0)
(1.00968 0.0014928 0)
(1.01121 0.00163754 0)
(1.01231 0.0018001 0)
(0.992936 -0.00599767 0)
(0.992975 -0.00566385 0)
(0.992964 -0.00532928 0)
(0.992908 -0.00499328 0)
(0.992805 -0.00465548 0)
(0.992647 -0.00431448 0)
(0.992421 -0.00396834 0)
(0.992106 -0.00361465 0)
(0.991676 -0.00325059 0)
(0.991103 -0.00287321 0)
(0.990358 -0.0024798 0)
(0.989418 -0.00206848 0)
(0.988275 -0.00163882 0)
(0.98694 -0.00119232 0)
(0.985456 -0.000732733 0)
(0.9839 -0.000265835 0)
(0.982379 0.000201223 0)
(0.981025 0.000661094 0)
(0.979974 0.00110761 0)
(0.988937 -0.00760349 0)
(0.988736 -0.00721593 0)
(0.98859 -0.0068163 0)
(0.988486 -0.00640691 0)
(0.988419 -0.00598785 0)
(0.988392 -0.00555967 0)
(0.988415 -0.00512345 0)
(0.98851 -0.00468066 0)
(0.988704 -0.0042331 0)
(0.989035 -0.00378275 0)
(0.989543 -0.00333139 0)
(0.990265 -0.00288004 0)
(0.99123 -0.00242835 0)
(0.992441 -0.00197412 0)
(0.993868 -0.00151301 0)
(0.99544 -0.00103899 0)
(0.99704 -0.000545329 0)
(0.998519 -2.63798e-05 0)
(0.999711 0.00052041 0)
(0.981827 -0.0111014 0)
(0.981626 -0.0103641 0)
(0.981385 -0.00961536 0)
(0.981114 -0.0088556 0)
(0.980814 -0.0080866 0)
(0.980487 -0.00730982 0)
(0.980127 -0.00652701 0)
(0.979723 -0.00574036 0)
(0.979259 -0.00495235 0)
(0.97871 -0.00416574 0)
(0.978044 -0.00338387 0)
(0.977225 -0.00261092 0)
(0.976218 -0.00185247 0)
(0.975001 -0.00111585 0)
(0.973579 -0.000410292 0)
(0.971997 0.000253691 0)
(0.970352 0.00086585 0)
(0.96879 0.00141873 0)
(0.967494 0.00191071 0)
(0.974232 -0.0163526 0)
(0.973807 -0.0156603 0)
(0.973431 -0.0149601 0)
(0.973102 -0.0142553 0)
(0.972826 -0.0135461 0)
(0.972613 -0.0128332 0)
(0.972482 -0.0121178 0)
(0.972455 -0.0114012 0)
(0.972565 -0.0106847 0)
(0.972851 -0.009969 0)
(0.973359 -0.00925372 0)
(0.974137 -0.00853663 0)
(0.97523 -0.00781247 0)
(0.976665 -0.00707208 0)
(0.978436 -0.00630168 0)
(0.980482 -0.00548334 0)
(0.982676 -0.00459693 0)
(0.984818 -0.00362399 0)
(0.986656 -0.0025531 0)
(0.965053 -0.0213579 0)
(0.964687 -0.0201705 0)
(0.964294 -0.0189636 0)
(0.963888 -0.017738 0)
(0.963481 -0.0164958 0)
(0.963079 -0.0152375 0)
(0.962683 -0.0139634 0)
(0.962287 -0.0126737 0)
(0.961872 -0.0113683 0)
(0.961407 -0.0100473 0)
(0.960841 -0.00871108 0)
(0.960108 -0.00736172 0)
(0.959127 -0.00600385 0)
(0.957819 -0.00464641 0)
(0.956121 -0.00330406 0)
(0.954025 -0.00199759 0)
(0.951605 -0.000752313 0)
(0.949045 0.000406228 0)
(0.946633 0.00145934 0)
(0.954583 -0.028852 0)
(0.953872 -0.0277926 0)
(0.953215 -0.0267189 0)
(0.952606 -0.0256348 0)
(0.952049 -0.0245391 0)
(0.951552 -0.0234304 0)
(0.951127 -0.0223076 0)
(0.950792 -0.0211696 0)
(0.950574 -0.0200149 0)
(0.950509 -0.0188423 0)
(0.950648 -0.0176504 0)
(0.951058 -0.016437 0)
(0.95182 -0.015198 0)
(0.953017 -0.0139253 0)
(0.954716 -0.0126049 0)
(0.956932 -0.0112149 0)
(0.959582 -0.00972588 0)
(0.962453 -0.00810465 0)
(0.965191 -0.00632312 0)
(0.943657 -0.0356511 0)
(0.942996 -0.0339349 0)
(0.942315 -0.0321754 0)
(0.941625 -0.0303746 0)
(0.940934 -0.0285347 0)
(0.940246 -0.026656 0)
(0.939562 -0.024738 0)
(0.938875 -0.0227805 0)
(0.938173 -0.0207825 0)
(0.937428 -0.0187435 0)
(0.936594 -0.0166627 0)
(0.935601 -0.0145407 0)
(0.934348 -0.0123801 0)
(0.932711 -0.0101883 0)
(0.930561 -0.00798049 0)
(0.927799 -0.00578305 0)
(0.924423 -0.00363465 0)
(0.920592 -0.0015833 0)
(0.91668 0.00032344 0)
(0.930845 -0.0440992 0)
(0.92961 -0.0424951 0)
(0.928442 -0.0408538 0)
(0.927326 -0.039183 0)
(0.926259 -0.0374835 0)
(0.92524 -0.0357566 0)
(0.924276 -0.0340037 0)
(0.923379 -0.0322259 0)
(0.922566 -0.0304246 0)
(0.92187 -0.0286009 0)
(0.921339 -0.0267564 0)
(0.921047 -0.0248928 0)
(0.921097 -0.0230111 0)
(0.921627 -0.0211098 0)
(0.922791 -0.0191814 0)
(0.924724 -0.0172077 0)
(0.927469 -0.015155 0)
(0.930888 -0.0129733 0)
(0.934593 -0.0106046 0)
(0.917599 -0.0540746 0)
(0.916323 -0.0516768 0)
(0.915052 -0.0492063 0)
(0.9138 -0.0466686 0)
(0.912573 -0.0440676 0)
(0.911373 -0.0414049 0)
(0.910202 -0.0386817 0)
(0.909056 -0.0358994 0)
(0.907927 -0.0330593 0)
(0.906798 -0.0301623 0)
(0.905636 -0.0272097 0)
(0.904384 -0.0242023 0)
(0.90295 -0.0211416 0)
(0.901195 -0.0180313 0)
(0.898934 -0.0148804 0)
(0.895963 -0.0117096 0)
(0.892128 -0.00855771 0)
(0.887443 -0.00548549 0)
(0.882235 -0.00256923 0)
(0.902763 -0.0645165 0)
(0.900745 -0.062149 0)
(0.898835 -0.0597052 0)
(0.897016 -0.0571994 0)
(0.89528 -0.0546391 0)
(0.893621 -0.0520324 0)
(0.892042 -0.049388 0)
(0.890549 -0.0467145 0)
(0.889153 -0.0440197 0)
(0.887874 -0.041311 0)
(0.886747 -0.0385949 0)
(0.88583 -0.0358774 0)
(0.885216 -0.0331634 0)
(0.885046 -0.0304568 0)
(0.885517 -0.0277569 0)
(0.886863 -0.025053 0)
(0.889287 -0.0223152 0)
(0.892829 -0.0194837 0)
(0.897193 -0.0164686 0)
(0.886956 -0.0787233 0)
(0.884728 -0.0754365 0)
(0.882563 -0.072042 0)
(0.880481 -0.0685497 0)
(0.878493 -0.0649644 0)
(0.876604 -0.0612879 0)
(0.874818 -0.0575213 0)
(0.873131 -0.0536658 0)
(0.871537 -0.0497227 0)
(0.870022 -0.0456934 0)
(0.868561 -0.0415797 0)
(0.867112 -0.037384 0)
(0.865598 -0.0331092 0)
(0.863893 -0.0287595 0)
(0.861802 -0.0243428 0)
(0.859049 -0.0198763 0)
(0.855322 -0.0153976 0)
(0.850395 -0.0109781 0)
(0.844376 -0.00672843 0)
(0.870102 -0.0923717 0)
(0.866969 -0.0889259 0)
(0.864025 -0.0853188 0)
(0.861249 -0.0815783 0)
(0.858634 -0.0777228 0)
(0.856173 -0.0737733 0)
(0.853866 -0.0697523 0)
(0.851712 -0.0656833 0)
(0.849718 -0.0615896 0)
(0.847894 -0.0574945 0)
(0.846261 -0.0534202 0)
(0.844858 -0.0493874 0)
(0.843754 -0.0454154 0)
(0.843065 -0.0415206 0)
(0.842982 -0.0377154 0)
(0.843782 -0.0340028 0)
(0.845804 -0.0303644 0)
(0.849317 -0.0267403 0)
(0.854264 -0.0230092 0)
(0.851442 -0.111013 0)
(0.847772 -0.106422 0)
(0.844262 -0.101659 0)
(0.840947 -0.0967372 0)
(0.837848 -0.09167 0)
(0.834984 -0.086464 0)
(0.832362 -0.0811267 0)
(0.829988 -0.075666 0)
(0.827859 -0.0700893 0)
(0.825966 -0.0644038 0)
(0.824291 -0.0586157 0)
(0.822798 -0.0527309 0)
(0.821429 -0.0467549 0)
(0.820076 -0.0406932 0)
(0.818558 -0.034554 0)
(0.816576 -0.0283515 0)
(0.813695 -0.0221214 0)
(0.809412 -0.0159428 0)
(0.803418 -0.0099628 0)
(0.831895 -0.129097 0)
(0.826991 -0.124034 0)
(0.822423 -0.118621 0)
(0.818178 -0.112924 0)
(0.814264 -0.10698 0)
(0.810683 -0.100835 0)
(0.807439 -0.094536 0)
(0.804535 -0.0881347 0)
(0.801975 -0.0816841 0)
(0.799758 -0.0752392 0)
(0.79789 -0.0688573 0)
(0.796387 -0.0625964 0)
(0.795284 -0.0565143 0)
(0.794655 -0.0506667 0)
(0.794647 -0.0451031 0)
(0.795517 -0.0398652 0)
(0.797673 -0.034967 0)
(0.801603 -0.0303722 0)
(0.807644 -0.0259536 0)
(0.809749 -0.152911 0)
(0.803712 -0.146253 0)
(0.798004 -0.139253 0)
(0.792708 -0.131925 0)
(0.787864 -0.1243 0)
(0.783518 -0.116415 0)
(0.779698 -0.108304 0)
(0.776425 -0.100012 0)
(0.773709 -0.0915828 0)
(0.771551 -0.0830583 0)
(0.76994 -0.0744764 0)
(0.768848 -0.0658685 0)
(0.768222 -0.0572582 0)
(0.767969 -0.0486607 0)
(0.767922 -0.040088 0)
(0.767789 -0.0315444 0)
(0.767054 -0.0230589 0)
(0.764983 -0.0147125 0)
(0.760673 -0.00666388 0)
(0.786574 -0.177408 0)
(0.778508 -0.169879 0)
(0.771063 -0.161594 0)
(0.764222 -0.152687 0)
(0.758067 -0.14325 0)
(0.752626 -0.133368 0)
(0.747944 -0.123146 0)
(0.744044 -0.112684 0)
(0.740945 -0.102095 0)
(0.738643 -0.0914944 0)
(0.73713 -0.081007 0)
(0.736388 -0.0707642 0)
(0.736403 -0.0609045 0)
(0.737183 -0.0515742 0)
(0.73879 -0.0429136 0)
(0.741392 -0.0350743 0)
(0.745394 -0.028158 0)
(0.751369 -0.0221992 0)
(0.760141 -0.017166 0)
(0.760271 -0.208861 0)
(0.750045 -0.199088 0)
(0.74037 -0.188486 0)
(0.731542 -0.177127 0)
(0.723616 -0.165039 0)
(0.716725 -0.152346 0)
(0.710938 -0.139156 0)
(0.706322 -0.125604 0)
(0.702909 -0.111834 0)
(0.700723 -0.0979899 0)
(0.699757 -0.0842128 0)
(0.699987 -0.0706309 0)
(0.701353 -0.0573511 0)
(0.703758 -0.0444469 0)
(0.707027 -0.0319773 0)
(0.710883 -0.0199222 0)
(0.714681 -0.00829899 0)
(0.717603 0.00281291 0)
(0.718099 0.0133506 0)
(0.733275 -0.243087 0)
(0.719272 -0.231897 0)
(0.706504 -0.219215 0)
(0.6948 -0.205102 0)
(0.684452 -0.189852 0)
(0.675559 -0.173616 0)
(0.668265 -0.156614 0)
(0.662636 -0.139067 0)
(0.658749 -0.121206 0)
(0.656615 -0.103269 0)
(0.65623 -0.0855069 0)
(0.657549 -0.0681783 0)
(0.660505 -0.0515576 0)
(0.665011 -0.0359529 0)
(0.671007 -0.0216508 0)
(0.678427 -0.00907043 0)
(0.687728 0.00148502 0)
(0.699252 0.00979728 0)
(0.714256 0.0154579 0)
(0.702587 -0.286148 0)
(0.684874 -0.272212 0)
(0.667885 -0.256075 0)
(0.652545 -0.238286 0)
(0.638979 -0.218814 0)
(0.627477 -0.197972 0)
(0.618171 -0.176048 0)
(0.61124 -0.153345 0)
(0.606724 -0.130185 0)
(0.604687 -0.106896 0)
(0.605127 -0.0838011 0)
(0.608016 -0.0612232 0)
(0.613284 -0.0394767 0)
(0.620818 -0.0188101 0)
(0.630383 0.000481639 0)
(0.641854 0.0184371 0)
(0.654098 0.0349434 0)
(0.666554 0.0499318 0)
(0.677075 0.0638613 0)
(0.672898 -0.334944 0)
(0.648079 -0.318465 0)
(0.625613 -0.299231 0)
(0.605249 -0.276957 0)
(0.587489 -0.252304 0)
(0.572573 -0.22575 0)
(0.560803 -0.197688 0)
(0.552191 -0.168596 0)
(0.546905 -0.1389 0)
(0.544938 -0.109011 0)
(0.546312 -0.0793523 0)
(0.551002 -0.0503518 0)
(0.558952 -0.0224521 0)
(0.57004 0.0037771 0)
(0.584239 0.0279226 0)
(0.60088 0.0489485 0)
(0.621045 0.0663133 0)
(0.643918 0.0792099 0)