/*--------------------------------*- C++ -*----------------------------------*\
  =========                 |
  \\      /  F ield         | OpenFOAM: The Open Source CFD Toolbox
   \\    /   O peration     | Website:  https://openfoam.org
    \\  /    A nd           | Version:  10
     \\/     M anipulation  |
\*---------------------------------------------------------------------------*/
FoamFile
{
    format      ascii;
    class       volVectorField;
    location    "0";
    object      U;
}
// * * * * * * * * * * * * * * * * * * * * * * * * * * * * * * * * * * * * * //

dimensions      [0 1 -1 0 0 0 0];

internalField   nonuniform List<vector> 
18483
(
(1.00001 -0.000283885 0)
(1.00001 -0.00101413 0)
(1.00001 -0.00160539 0)
(1 -0.00222671 0)
(1 -0.00280435 0)
(0.999996 -0.00334944 0)
(0.999991 -0.00384146 0)
(0.999986 -0.00426804 0)
(0.999981 -0.00461941 0)
(0.999976 -0.0048918 0)
(0.999972 -0.0050928 0)
(0.999966 -0.00524147 0)
(0.999959 -0.00536684 0)
(0.999955 -0.00551018 0)
(0.999956 -0.00571198 0)
(0.999956 -0.00599246 0)
(0.999901 -0.00631171 0)
(0.999537 -0.00658341 0)
(0.998165 -0.00672487 0)
(0.994876 -0.00667442 0)
(0.990042 -0.00648124 0)
(0.986272 -0.00626097 0)
(0.98594 -0.00602044 0)
(0.988478 -0.00570933 0)
(0.991794 -0.00535013 0)
(0.994568 -0.00500028 0)
(0.996504 -0.00469027 0)
(0.997746 -0.00442847 0)
(0.998511 -0.00421211 0)
(1.00085 -0.000769516 0)
(1.00087 -0.00273819 0)
(1.00094 -0.00435206 0)
(1.00101 -0.00607911 0)
(1.00107 -0.00771137 0)
(1.0011 -0.00928652 0)
(1.0011 -0.0107421 0)
(1.00105 -0.0120401 0)
(1.00095 -0.0131448 0)
(1.00082 -0.0140361 0)
(1.00066 -0.0147022 0)
(1.0005 -0.0151505 0)
(1.00038 -0.0153736 0)
(1.00033 -0.0153183 0)
(1.00032 -0.0149143 0)
(1.00031 -0.0141246 0)
(1.00025 -0.013028 0)
(1.0003 -0.0118194 0)
(1.00114 -0.0107525 0)
(1.00384 -0.0101127 0)
(1.00831 -0.00999508 0)
(1.01181 -0.0101785 0)
(1.01144 -0.0104391 0)
(1.00786 -0.0107162 0)
(1.00375 -0.0109563 0)
(1.00061 -0.0111006 0)
(0.998597 -0.0111473 0)
(0.997402 -0.0111199 0)
(0.996709 -0.011045 0)
(1.0023 -0.00116936 0)
(1.0024 -0.00413837 0)
(1.0026 -0.00659075 0)
(1.0028 -0.00925031 0)
(1.003 -0.0117885 0)
(1.00313 -0.0142785 0)
(1.00316 -0.0166181 0)
(1.00307 -0.0187466 0)
(1.00284 -0.0205923 0)
(1.00249 -0.0221053 0)
(1.00203 -0.0232487 0)
(1.00148 -0.0240132 0)
(1.00089 -0.0244376 0)
(1.00025 -0.0246016 0)
(0.999518 -0.0246841 0)
(0.99867 -0.0248959 0)
(0.997711 -0.0253024 0)
(0.996572 -0.0257684 0)
(0.994926 -0.026045 0)
(0.992235 -0.0258604 0)
(0.988612 -0.0250429 0)
(0.985792 -0.023804 0)
(0.985746 -0.0225774 0)
(0.988008 -0.0215032 0)
(0.990551 -0.0205669 0)
(0.992315 -0.0197986 0)
(0.993313 -0.0191884 0)
(0.993825 -0.0187052 0)
(0.994068 -0.0183214 0)
(1.00401 -0.00151525 0)
(1.0042 -0.00533492 0)
(1.00456 -0.00850126 0)
(1.00494 -0.0119623 0)
(1.00532 -0.015282 0)
(1.00559 -0.018574 0)
(1.00569 -0.0217028 0)
(1.00557 -0.0245916 0)
(1.0052 -0.0271384 0)
(1.00458 -0.0292723 0)
(1.00373 -0.0309543 0)
(1.00269 -0.0321669 0)
(1.00153 -0.0329509 0)
(1.00034 -0.0333697 0)
(0.999194 -0.0334133 0)
(0.998182 -0.0329558 0)
(0.99733 -0.0319105 0)
(0.996698 -0.0304228 0)
(0.996636 -0.0288325 0)
(0.997905 -0.0274994 0)
(1.00071 -0.0266644 0)
(1.00323 -0.0262905 0)
(1.00291 -0.0260077 0)
(0.999841 -0.0256557 0)
(0.996295 -0.0253307 0)
(0.993669 -0.0250048 0)
(0.992005 -0.0246513 0)
(0.99098 -0.0242831 0)
(0.990334 -0.0239143 0)
(1.0058 -0.00181312 0)
(1.0061 -0.00635651 0)
(1.00663 -0.0101299 0)
(1.00722 -0.0142735 0)
(1.00781 -0.0182613 0)
(1.00826 -0.0222495 0)
(1.00849 -0.0260787 0)
(1.00839 -0.0296653 0)
(1.00791 -0.0328853 0)
(1.00705 -0.0356407 0)
(1.00585 -0.0378583 0)
(1.00437 -0.0394794 0)
(1.00271 -0.0404857 0)
(1.00097 -0.0409141 0)
(0.999201 -0.0408563 0)
(0.997386 -0.0405375 0)
(0.995489 -0.0402587 0)
(0.993492 -0.0401471 0)
(0.991239 -0.0400296 0)
(0.988268 -0.0396069 0)
(0.984315 -0.038704 0)
(0.98055 -0.0373393 0)
(0.979155 -0.0358506 0)
(0.980391 -0.0344937 0)
(0.982262 -0.0331667 0)
(0.983443 -0.0319078 0)
(0.98395 -0.030798 0)
(0.984088 -0.0298418 0)
(0.984053 -0.0290291 0)
(1.00764 -0.00205812 0)
(1.00805 -0.00719077 0)
(1.00876 -0.011463 0)
(1.00958 -0.0161741 0)
(1.01042 -0.0207271 0)
(1.0111 -0.0253225 0)
(1.01149 -0.0297864 0)
(1.01147 -0.0340352 0)
(1.01096 -0.0379223 0)
(1.00992 -0.0413189 0)
(1.00839 -0.0441144 0)
(1.00642 -0.046243 0)
(1.0041 -0.0477042 0)
(1.00153 -0.048556 0)
(0.998825 -0.0488803 0)
(0.996138 -0.0486728 0)
(0.993619 -0.0477948 0)
(0.991399 -0.0461953 0)
(0.989771 -0.0441223 0)
(0.989468 -0.0420073 0)
(0.99109 -0.0401794 0)
(0.993343 -0.0387809 0)
(0.993218 -0.0376279 0)
(0.989823 -0.0365225 0)
(0.985545 -0.0356171 0)
(0.982333 -0.0348868 0)
(0.980246 -0.0341932 0)
(0.978862 -0.0335129 0)
(0.977896 -0.0328507 0)
(1.00949 -0.00224995 0)
(1.01002 -0.00783952 0)
(1.01092 -0.0125085 0)
(1.01199 -0.0176833 0)
(1.0131 -0.0227152 0)
(1.01405 -0.02785 0)
(1.01467 -0.0329076 0)
(1.01479 -0.0378117 0)
(1.01431 -0.042401 0)
(1.01314 -0.0465312 0)
(1.01129 -0.0500726 0)
(1.00881 -0.0529382 0)
(1.00583 -0.0550747 0)
(1.00255 -0.0564272 0)
(0.999158 -0.0569669 0)
(0.995779 -0.0567736 0)
(0.99244 -0.056196 0)
(0.989103 -0.055689 0)
(0.985674 -0.0553309 0)
(0.981614 -0.0547958 0)
(0.97617 -0.0537861 0)
(0.970163 -0.0522376 0)
(0.966622 -0.0504225 0)
(0.967016 -0.0486161 0)
(0.968867 -0.0466984 0)
(0.969836 -0.0447249 0)
(0.969913 -0.0429185 0)
(0.96961 -0.0413335 0)
(0.969173 -0.0399691 0)
(1.01133 -0.00239489 0)
(1.01198 -0.00832626 0)
(1.01307 -0.0133047 0)
(1.0144 -0.0188563 0)
(1.01581 -0.0242966 0)
(1.01707 -0.0299188 0)
(1.01798 -0.0355439 0)
(1.01833 -0.0411131 0)
(1.01796 -0.0464632 0)
(1.01676 -0.0514418 0)
(1.0147 -0.0558851 0)
(1.01184 -0.0596369 0)
(1.00834 -0.0625622 0)
(1.00437 -0.0645823 0)
(1.00004 -0.065735 0)
(0.995479 -0.0661179 0)
(0.99087 -0.065784 0)
(0.986527 -0.0645379 0)
(0.982837 -0.0622756 0)
(0.980541 -0.0594665 0)
(0.980728 -0.0567401 0)
(0.98278 -0.0545037 0)
(0.982826 -0.0526558 0)
(0.978274 -0.0509323 0)
(0.971931 -0.0495455 0)
(0.967195 -0.0484955 0)
(0.964174 -0.0475019 0)
(0.962081 -0.0465081 0)
(0.960538 -0.0455293 0)
(1.01309 -0.00250221 0)
(1.01387 -0.00868357 0)
(1.01516 -0.0139011 0)
(1.01676 -0.0197584 0)
(1.01849 -0.0255483 0)
(1.02009 -0.0316109 0)
(1.02135 -0.0377762 0)
(1.02201 -0.0440102 0)
(1.02187 -0.0501565 0)
(1.02079 -0.0560548 0)
(1.0187 -0.0615066 0)
(1.01561 -0.0663133 0)
(1.01163 -0.0703176 0)
(1.00689 -0.0734334 0)
(1.00159 -0.0756441 0)
(0.995985 -0.076888 0)
(0.990364 -0.0772213 0)
(0.984894 -0.077045 0)
(0.979479 -0.0768777 0)
(0.97362 -0.0767443 0)
(0.966233 -0.0761002 0)
(0.957442 -0.0744903 0)
(0.950955 -0.0721953 0)
(0.950166 -0.069808 0)
(0.952285 -0.0672341 0)
(0.95308 -0.0644485 0)
(0.952454 -0.0618651 0)
(0.951441 -0.059602 0)
(0.950362 -0.057645 0)
(1.01476 -0.00258083 0)
(1.01566 -0.008942 0)
(1.01715 -0.0143431 0)
(1.01902 -0.0204472 0)
(1.02108 -0.0265334 0)
(1.02306 -0.0329873 0)
(1.02471 -0.0396527 0)
(1.02576 -0.0465251 0)
(1.02599 -0.0534622 0)
(1.02517 -0.0603096 0)
(1.0232 -0.0668593 0)
(1.02001 -0.0728959 0)
(1.01568 -0.0782157 0)
(1.01036 -0.0826205 0)
(1.00433 -0.0859591 0)
(0.997826 -0.0881184 0)
(0.991058 -0.0890949 0)
(0.984301 -0.0888625 0)
(0.978026 -0.0871946 0)
(0.973073 -0.0841865 0)
(0.970845 -0.0806999 0)
(0.971699 -0.0778147 0)
(0.971632 -0.075751 0)
(0.96579 -0.0738213 0)
(0.956573 -0.0720547 0)
(0.949592 -0.0707588 0)
(0.945353 -0.0695226 0)
(0.942323 -0.0682092 0)
(0.940015 -0.0668982 0)
(1.01631 -0.0026376 0)
(1.01733 -0.00912489 0)
(1.01901 -0.0146647 0)
(1.02115 -0.0209651 0)
(1.02355 -0.0272966 0)
(1.02592 -0.0340875 0)
(1.02801 -0.0411986 0)
(1.02953 -0.0486581 0)
(1.03021 -0.0563479 0)
(1.02979 -0.0641367 0)
(1.02809 -0.0718248 0)
(1.025 -0.079176 0)
(1.02056 -0.085924 0)
(1.01487 -0.09179 0)
(1.00813 -0.0965864 0)
(1.00054 -0.100218 0)
(0.992372 -0.10266 0)
(0.983992 -0.104067 0)
(0.975671 -0.104969 0)
(0.967236 -0.105871 0)
(0.957667 -0.106372 0)
(0.946193 -0.105405 0)
(0.936003 -0.102713 0)
(0.932539 -0.0994848 0)
(0.93431 -0.0962737 0)
(0.934796 -0.0926986 0)
(0.933051 -0.089254 0)
(0.930996 -0.0862807 0)
(0.929031 -0.0836934 0)
(1.01773 -0.00267734 0)
(1.01886 -0.00924862 0)
(1.02073 -0.01489 0)
(1.02314 -0.0213417 0)
(1.02587 -0.027869 0)
(1.02865 -0.0349395 0)
(1.03121 -0.0424316 0)
(1.03325 -0.0504082 0)
(1.03447 -0.0587837 0)
(1.03457 -0.0674604 0)
(1.03333 -0.0762568 0)
(1.03057 -0.0849296 0)
(1.02625 -0.0931892 0)
(1.02039 -0.100723 0)
(1.01311 -0.107263 0)
(1.0047 -0.112561 0)
(0.995526 -0.116377 0)
(0.986013 -0.118475 0)
(0.976716 -0.118545 0)
(0.968471 -0.116417 0)
(0.962631 -0.112718 0)
(0.960473 -0.109056 0)
(0.959465 -0.106796 0)
(0.953014 -0.105175 0)
(0.940955 -0.103153 0)
(0.930837 -0.101457 0)
(0.924948 -0.099953 0)
(0.920699 -0.0981809 0)
(0.917345 -0.0963613 0)
(1.01902 -0.00270359 0)
(1.02026 -0.00932511 0)
(1.02231 -0.0150367 0)
(1.02498 -0.0216001 0)
(1.02804 -0.0282762 0)
(1.03123 -0.0355684 0)
(1.03427 -0.0433717 0)
(1.03686 -0.0517828 0)
(1.03868 -0.0607523 0)
(1.03943 -0.0702234 0)
(1.0388 -0.0800465 0)
(1.03658 -0.0899995 0)
(1.0326 -0.0997952 0)
(1.02683 -0.10908 0)
(1.01934 -0.117474 0)
(1.01034 -0.124616 0)
(1.00009 -0.130252 0)
(0.988912 -0.13432 0)
(0.97724 -0.1372 0)
(0.965392 -0.139738 0)
(0.952993 -0.142147 0)
(0.938876 -0.143098 0)
(0.924413 -0.141016 0)
(0.915846 -0.136846 0)
(0.91526 -0.132696 0)
(0.915174 -0.128359 0)
(0.911902 -0.123782 0)
(0.908248 -0.119842 0)
(0.905022 -0.116425 0)
(1.02019 -0.00271916 0)
(1.02153 -0.00936391 0)
(1.02376 -0.0151195 0)
(1.02666 -0.0217601 0)
(1.03005 -0.0285421 0)
(1.03364 -0.0360009 0)
(1.03716 -0.0440457 0)
(1.04031 -0.052804 0)
(1.04278 -0.0622637 0)
(1.04424 -0.0724141 0)
(1.04434 -0.0831523 0)
(1.04281 -0.094296 0)
(1.03941 -0.105575 0)
(1.034 -0.116618 0)
(1.02655 -0.127 0)
(1.01712 -0.136304 0)
(1.00595 -0.144175 0)
(0.993545 -0.150246 0)
(0.980708 -0.153984 0)
(0.968527 -0.154702 0)
(0.95815 -0.152296 0)
(0.95106 -0.148206 0)
(0.947093 -0.145104 0)
(0.940223 -0.143835 0)
(0.926038 -0.142079 0)
(0.911469 -0.139676 0)
(0.902669 -0.13765 0)
(0.896647 -0.135175 0)
(0.89165 -0.132425 0)
(1.02125 -0.00272638 0)
(1.02268 -0.009373 0)
(1.02507 -0.0151511 0)
(1.02821 -0.0218398 0)
(1.0319 -0.0286902 0)
(1.03586 -0.0362661 0)
(1.03984 -0.0444877 0)
(1.04355 -0.0535087 0)
(1.04668 -0.0633536 0)
(1.04889 -0.0740606 0)
(1.04981 -0.085581 0)
(1.04911 -0.0977849 0)
(1.0465 -0.110441 0)
(1.04171 -0.123202 0)
(1.0346 -0.13563 0)
(1.02512 -0.147209 0)
(1.01349 -0.157419 0)
(1.00012 -0.165793 0)
(0.985541 -0.172144 0)
(0.970165 -0.177186 0)
(0.953994 -0.182012 0)
(0.936432 -0.186023 0)
(0.917395 -0.186627 0)
(0.901565 -0.182565 0)
(0.895054 -0.176884 0)
(0.893265 -0.171591 0)
(0.888246 -0.165651 0)
(0.881997 -0.160136 0)
(0.876831 -0.155475 0)
(1.0222 -0.0027272 0)
(1.02372 -0.00935917 0)
(1.02626 -0.0151426 0)
(1.02961 -0.0218555 0)
(1.03358 -0.028743 0)
(1.0379 -0.0363937 0)
(1.04232 -0.0447348 0)
(1.04657 -0.0539419 0)
(1.05035 -0.0640725 0)
(1.05333 -0.0752127 0)
(1.05513 -0.0873707 0)
(1.05538 -0.100479 0)
(1.05372 -0.114368 0)
(1.04981 -0.128734 0)
(1.04337 -0.143146 0)
(1.03424 -0.157045 0)
(1.02244 -0.169863 0)
(1.00827 -0.181116 0)
(0.992342 -0.190242 0)
(0.975774 -0.196313 0)
(0.960074 -0.198127 0)
(0.946648 -0.195652 0)
(0.93681 -0.191705 0)
(0.927823 -0.190131 0)
(0.912238 -0.189506 0)
(0.892157 -0.186683 0)
(0.877733 -0.183519 0)
(0.86869 -0.180107 0)
(0.861013 -0.17582 0)
(1.02306 -0.00272324 0)
(1.02466 -0.00932816 0)
(1.02734 -0.0151035 0)
(1.03089 -0.0218218 0)
(1.03512 -0.028721 0)
(1.03977 -0.0364119 0)
(1.0446 -0.0448238 0)
(1.04936 -0.0541495 0)
(1.05377 -0.0644759 0)
(1.05751 -0.0759326 0)
(1.06021 -0.0885841 0)
(1.06147 -0.102432 0)
(1.0609 -0.117377 0)
(1.05807 -0.133182 0)
(1.05259 -0.149464 0)
(1.04414 -0.165687 0)
(1.03257 -0.181239 0)
(1.01814 -0.195486 0)
(1.00142 -0.207693 0)
(0.982955 -0.217441 0)
(0.962837 -0.225761 0)
(0.940757 -0.233816 0)
(0.916538 -0.239492 0)
(0.892315 -0.238508 0)
(0.875544 -0.231838 0)
(0.868501 -0.224928 0)
(0.861331 -0.217844 0)
(0.851125 -0.210015 0)
(0.842507 -0.203331 0)
(1.02385 -0.00271583 0)
(1.02551 -0.00928483 0)
(1.02832 -0.0150423 0)
(1.03204 -0.0217513 0)
(1.03651 -0.0286426 0)
(1.04147 -0.0363461 0)
(1.04668 -0.044789 0)
(1.05192 -0.054177 0)
(1.05692 -0.0646218 0)
(1.0614 -0.0762911 0)
(1.06498 -0.0893023 0)
(1.06729 -0.103726 0)
(1.06788 -0.119542 0)
(1.06627 -0.136593 0)
(1.06198 -0.154577 0)
(1.05455 -0.173012 0)
(1.04371 -0.191263 0)
(1.02953 -0.208661 0)
(1.01235 -0.224508 0)
(0.992664 -0.237855 0)
(0.971595 -0.247192 0)
(0.951122 -0.250663 0)
(0.933206 -0.248637 0)
(0.918361 -0.246282 0)
(0.90053 -0.247163 0)
(0.874897 -0.246002 0)
(0.850905 -0.241417 0)
(0.835641 -0.236668 0)
(0.823612 -0.230461 0)
(1.02455 -0.00270603 0)
(1.02628 -0.00923314 0)
(1.02921 -0.0149657 0)
(1.03309 -0.0216546 0)
(1.03778 -0.0285235 0)
(1.04301 -0.0362184 0)
(1.04856 -0.0446606 0)
(1.05424 -0.0540662 0)
(1.05981 -0.0645662 0)
(1.06497 -0.0763599 0)
(1.06941 -0.0896121 0)
(1.07275 -0.104458 0)
(1.07453 -0.12096 0)
(1.07425 -0.139046 0)
(1.07134 -0.15851 0)
(1.06526 -0.178955 0)
(1.05556 -0.199798 0)
(1.04211 -0.22038 0)
(1.0251 -0.239938 0)
(1.00488 -0.257381 0)
(0.981599 -0.272126 0)
(0.95503 -0.285552 0)
(0.925087 -0.298314 0)
(0.892443 -0.305679 0)
(0.862062 -0.302303 0)
(0.84295 -0.293453 0)
(0.831127 -0.285384 0)
(0.815792 -0.275504 0)
(0.800684 -0.265565 0)
(1.0252 -0.00269466 0)
(1.02698 -0.0091763 0)
(1.03002 -0.0148794 0)
(1.03404 -0.0215404 0)
(1.03893 -0.0283765 0)
(1.0444 -0.0360478 0)
(1.05027 -0.0444654 0)
(1.05635 -0.0538542 0)
(1.06242 -0.0643595 0)
(1.06823 -0.0762048 0)
(1.07349 -0.0895961 0)
(1.07782 -0.104728 0)
(1.08081 -0.121739 0)
(1.08191 -0.14065 0)
(1.08051 -0.161348 0)
(1.076 -0.183558 0)
(1.06779 -0.206796 0)
(1.05557 -0.230433 0)
(1.03936 -0.253749 0)
(1.01919 -0.275735 0)
(0.995141 -0.294947 0)
(0.968478 -0.309045 0)
(0.941789 -0.315173 0)
(0.917177 -0.314937 0)
(0.893708 -0.316885 0)
(0.863395 -0.320798 0)
(0.826968 -0.31766 0)
(0.79874 -0.311043 0)
(0.779083 -0.303295 0)
(1.02578 -0.00268238 0)
(1.02762 -0.00911684 0)
(1.03075 -0.014788 0)
(1.0349 -0.0214157 0)
(1.03997 -0.0282123 0)
(1.04566 -0.0358493 0)
(1.05182 -0.0442248 0)
(1.05826 -0.0535716 0)
(1.06479 -0.0640437 0)
(1.0712 -0.0758823 0)
(1.07721 -0.0893286 0)
(1.08251 -0.104629 0)
(1.08666 -0.121992 0)
(1.08914 -0.141526 0)
(1.08931 -0.163217 0)
(1.08651 -0.186916 0)
(1.08007 -0.212267 0)
(1.06953 -0.238716 0)
(1.0547 -0.265632 0)
(1.0354 -0.292051 0)
(1.01128 -0.316528 0)
(0.982052 -0.338629 0)
(0.94744 -0.360301 0)
(0.907342 -0.380603 0)
(0.863309 -0.389832 0)
(0.824642 -0.383653 0)
(0.799961 -0.374143 0)
(0.778184 -0.36448 0)
(0.752685 -0.350765 0)
(1.0263 -0.00266968 0)
(1.02818 -0.00905672 0)
(1.0314 -0.0146949 0)
(1.03566 -0.0212861 0)
(1.04091 -0.0280393 0)
(1.04679 -0.0356349 0)
(1.0532 -0.0439564 0)
(1.05997 -0.053243 0)
(1.06692 -0.0636533 0)
(1.07387 -0.0754408 0)
(1.0806 -0.0888759 0)
(1.08678 -0.104248 0)
(1.09205 -0.121829 0)
(1.09588 -0.141808 0)
(1.09761 -0.164264 0)
(1.09659 -0.189166 0)
(1.09212 -0.216304 0)
(1.08361 -0.245245 0)
(1.07067 -0.275467 0)
(1.05292 -0.306219 0)
(1.02966 -0.33624 0)
(1.0007 -0.363677 0)
(0.967812 -0.384977 0)
(0.933405 -0.395712 0)
(0.899289 -0.400128 0)
(0.862828 -0.410526 0)
(0.815258 -0.417853 0)
(0.765331 -0.411697 0)
(0.729464 -0.402735 0)
(1.02676 -0.00265697 0)
(1.02869 -0.00899747 0)
(1.03198 -0.0146027 0)
(1.03635 -0.0211559 0)
(1.04174 -0.0278637 0)
(1.04779 -0.0354138 0)
(1.05444 -0.0436735 0)
(1.06149 -0.0528881 0)
(1.06883 -0.0632167 0)
(1.07627 -0.0749211 0)
(1.08364 -0.0882947 0)
(1.09065 -0.103664 0)
(1.09696 -0.12135 0)
(1.10207 -0.14162 0)
(1.10535 -0.164633 0)
(1.10613 -0.190463 0)
(1.10372 -0.219052 0)
(1.09746 -0.250111 0)
(1.08682 -0.283246 0)
(1.07125 -0.317908 0)
(1.0499 -0.353004 0)
(1.02183 -0.387003 0)
(0.986201 -0.419941 0)
(0.942213 -0.454727 0)
(0.889232 -0.487743 0)
(0.829253 -0.500657 0)
(0.777437 -0.492305 0)
(0.74126 -0.484004 0)
(0.703307 -0.47058 0)
(1.02717 -0.00264455 0)
(1.02914 -0.00894022 0)
(1.0325 -0.0145135 0)
(1.03695 -0.0210283 0)
(1.04248 -0.0276906 0)
(1.04869 -0.0351931 0)
(1.05554 -0.043387 0)
(1.06285 -0.0525231 0)
(1.07052 -0.0627569 0)
(1.07841 -0.0743566 0)
(1.08635 -0.0876322 0)
(1.09412 -0.10294 0)
(1.10139 -0.120644 0)
(1.10772 -0.141073 0)
(1.11249 -0.164466 0)
(1.11503 -0.190982 0)
(1.11469 -0.220698 0)
(1.1108 -0.253483 0)
(1.10275 -0.289088 0)
(1.08983 -0.327147 0)
(1.07103 -0.366969 0)
(1.04522 -0.407519 0)
(1.01186 -0.446627 0)
(0.972312 -0.478734 0)
(0.928138 -0.497357 0)
(0.881133 -0.512399 0)
(0.825731 -0.538935 0)
(0.752104 -0.549792 0)
(0.681454 -0.53899 0)
(1.02754 -0.00263263 0)
(1.02954 -0.00888578 0)
(1.03296 -0.0144284 0)
(1.03749 -0.0209056 0)
(1.04314 -0.0275235 0)
(1.04948 -0.034978 0)
(1.05651 -0.043105 0)
(1.06405 -0.0521597 0)
(1.07201 -0.0622916 0)
(1.08029 -0.0737731 0)
(1.08876 -0.0869254 0)
(1.09722 -0.10213 0)
(1.10538 -0.119782 0)
(1.11282 -0.140266 0)
(1.119 -0.163889 0)
(1.12323 -0.190884 0)
(1.12491 -0.221437 0)
(1.1234 -0.255559 0)
(1.11809 -0.293168 0)
(1.10816 -0.334086 0)
(1.09249 -0.377869 0)
(1.0701 -0.423865 0)
(1.03945 -0.470912 0)
(0.997425 -0.519575 0)
(0.943154 -0.575934 0)
(0.875018 -0.632691 0)
(0.790252 -0.653596 0)
(0.71232 -0.644623 0)
(0.653685 -0.638081 0)
(1.02786 -0.00262135 0)
(1.02989 -0.00883471 0)
(1.03337 -0.0143485 0)
(1.03797 -0.0207895 0)
(1.04372 -0.027365 0)
(1.05018 -0.0347725 0)
(1.05737 -0.0428335 0)
(1.06511 -0.0518071 0)
(1.07333 -0.0618344 0)
(1.08196 -0.0731906 0)
(1.09089 -0.0862041 0)
(1.09996 -0.101275 0)
(1.10893 -0.118828 0)
(1.1174 -0.139286 0)
(1.12487 -0.163019 0)
(1.1307 -0.190322 0)
(1.1343 -0.221465 0)
(1.13511 -0.25658 0)
(1.13256 -0.295733 0)
(1.12584 -0.338958 0)
(1.11367 -0.385993 0)
(1.09506 -0.436671 0)
(1.06897 -0.491123 0)
(1.03317 -0.547086 0)
(0.987322 -0.595691 0)
(0.931899 -0.627003 0)
(0.868364 -0.665899 0)
(0.781372 -0.727702 0)
(0.656838 -0.738061 0)
(1.02815 -0.0026108 0)
(1.03021 -0.00878734 0)
(1.03373 -0.0142742 0)
(1.0384 -0.0206811 0)
(1.04423 -0.0272166 0)
(1.05079 -0.034579 0)
(1.05813 -0.0425765 0)
(1.06604 -0.0514711 0)
(1.07449 -0.0613947 0)
(1.08343 -0.0726239 0)
(1.09276 -0.0854909 0)
(1.10238 -0.10041 0)
(1.11207 -0.117829 0)
(1.12147 -0.138204 0)
(1.13012 -0.161952 0)
(1.13743 -0.189424 0)
(1.14284 -0.220954 0)
(1.14585 -0.25677 0)
(1.14594 -0.297044 0)
(1.14245 -0.342015 0)
(1.13409 -0.391672 0)
(1.11965 -0.445925 0)
(1.09896 -0.50544 0)
(1.06935 -0.570347 0)
(1.02237 -0.641438 0)
(0.958599 -0.733258 0)
(0.87914 -0.841965 0)
(0.748831 -0.889378 0)
(0.593469 -0.876547 0)
(1.0284 -0.00260104 0)
(1.03048 -0.00874385 0)
(1.03405 -0.0142059 0)
(1.03877 -0.020581 0)
(1.04468 -0.0270795 0)
(1.05134 -0.0343992 0)
(1.05879 -0.0423368 0)
(1.06685 -0.0511562 0)
(1.07551 -0.0609795 0)
(1.08471 -0.0720838 0)
(1.0944 -0.0848029 0)
(1.10451 -0.0995611 0)
(1.11483 -0.116825 0)
(1.12507 -0.137077 0)
(1.13478 -0.160771 0)
(1.14343 -0.188303 0)
(1.15052 -0.220058 0)
(1.15559 -0.256343 0)
(1.15817 -0.297398 0)
(1.15772 -0.34359 0)
(1.15326 -0.395223 0)
(1.14337 -0.452278 0)
(1.12758 -0.515491 0)
(1.10556 -0.587958 0)
(1.0736 -0.669682 0)
(1.02689 -0.742857 0)
(0.95939 -0.791409 0)
(0.87565 -0.892989 0)
(0.712088 -1.04168 0)
(1.02862 -0.00259208 0)
(1.03073 -0.0087043 0)
(1.03432 -0.0141436 0)
(1.0391 -0.0204896 0)
(1.04508 -0.0269539 0)
(1.05182 -0.034234 0)
(1.05938 -0.0421159 0)
(1.06757 -0.0508646 0)
(1.0764 -0.060593 0)
(1.08583 -0.0715775 0)
(1.09584 -0.0841516 0)
(1.10636 -0.098747 0)
(1.11725 -0.115844 0)
(1.12823 -0.135947 0)
(1.13889 -0.159539 0)
(1.14875 -0.187051 0)
(1.15735 -0.218903 0)
(1.16431 -0.255466 0)
(1.16921 -0.297038 0)
(1.17154 -0.344017 0)
(1.17075 -0.396964 0)
(1.1656 -0.456175 0)
(1.15499 -0.521962 0)
(1.14071 -0.597613 0)
(1.12149 -0.686389 0)
(1.07698 -0.782931 0)
(1.00861 -0.924915 0)
(0.93415 -1.16346 0)
(0.661179 -1.23104 0)
(0.998974 -0.00403239 0)
(0.999262 -0.00386866 0)
(0.999422 -0.00370606 0)
(0.999462 -0.003544 0)
(0.999378 -0.00338203 0)
(0.999159 -0.00321967 0)
(0.998782 -0.00305688 0)
(0.998219 -0.00289426 0)
(0.997437 -0.00273324 0)
(0.996409 -0.00257626 0)
(0.995117 -0.00242691 0)
(0.993564 -0.00228986 0)
(0.991781 -0.00217067 0)
(0.989836 -0.00207523 0)
(0.987832 -0.00200895 0)
(0.985908 -0.0019758 0)
(0.98422 -0.00197731 0)
(0.98293 -0.00201175 0)
(0.982171 -0.00207382 0)
(0.996306 -0.0109471 0)
(0.996058 -0.0108376 0)
(0.995919 -0.0107186 0)
(0.995878 -0.0105946 0)
(0.995943 -0.0104679 0)
(0.996135 -0.0103411 0)
(0.996486 -0.0102163 0)
(0.997045 -0.0100952 0)
(0.997864 -0.00997883 0)
(0.998997 -0.00986651 0)
(1.00049 -0.00975586 0)
(1.00235 -0.00964207 0)
(1.00458 -0.00951771 0)
(1.0071 -0.00937306 0)
(1.00978 -0.00919692 0)
(1.01245 -0.00897823 0)
(1.01487 -0.00870809 0)
(1.01681 -0.00838184 0)
(1.01807 -0.00800074 0)
(0.994172 -0.0180085 0)
(0.994205 -0.0177225 0)
(0.994186 -0.0174337 0)
(0.994119 -0.0171397 0)
(0.994 -0.0168395 0)
(0.993814 -0.0165311 0)
(0.993533 -0.0162121 0)
(0.993118 -0.0158799 0)
(0.992521 -0.0155322 0)
(0.991682 -0.0151667 0)
(0.990544 -0.0147826 0)
(0.989057 -0.0143809 0)
(0.987197 -0.0139652 0)
(0.984983 -0.013542 0)
(0.982489 -0.0131204 0)
(0.979857 -0.0127111 0)
(0.977287 -0.0123241 0)
(0.975022 -0.0119672 0)
(0.973308 -0.0116437 0)
(0.989905 -0.0235601 0)
(0.989586 -0.0232118 0)
(0.989332 -0.0228549 0)
(0.989135 -0.0224919 0)
(0.988997 -0.0221228 0)
(0.98893 -0.021748 0)
(0.988959 -0.0213681 0)
(0.989119 -0.0209839 0)
(0.98946 -0.0205961 0)
(0.990043 -0.0202052 0)
(0.990931 -0.0198106 0)
(0.992182 -0.0194102 0)
(0.993827 -0.0189998 0)
(0.995857 -0.0185726 0)
(0.998197 -0.0181198 0)
(1.0007 -0.0176314 0)
(1.00315 -0.0170989 0)
(1.00528 -0.0165169 0)
(1.00682 -0.0158858 0)
(0.983946 -0.0283332 0)
(0.9838 -0.027681 0)
(0.983621 -0.027017 0)
(0.983409 -0.0263412 0)
(0.983162 -0.0256545 0)
(0.982868 -0.024957 0)
(0.982505 -0.0242485 0)
(0.982039 -0.0235284 0)
(0.981424 -0.0227962 0)
(0.980597 -0.0220513 0)
(0.979487 -0.0212936 0)
(0.97802 -0.0205245 0)
(0.976135 -0.0197472 0)
(0.973812 -0.018967 0)
(0.971091 -0.0181913 0)
(0.968095 -0.0174287 0)
(0.965042 -0.0166866 0)
(0.962219 -0.0159693 0)
(0.959946 -0.0152759 0)
(0.97718 -0.0322203 0)
(0.976588 -0.0316002 0)
(0.976056 -0.0309606 0)
(0.975573 -0.030304 0)
(0.975138 -0.0296292 0)
(0.974758 -0.0289356 0)
(0.97445 -0.0282231 0)
(0.974243 -0.0274918 0)
(0.97418 -0.0267417 0)
(0.974318 -0.0259733 0)
(0.974729 -0.0251869 0)
(0.975485 -0.0243819 0)
(0.976648 -0.0235568 0)
(0.97824 -0.0227089 0)
(0.980222 -0.0218344 0)
(0.982468 -0.0209295 0)
(0.984757 -0.0199925 0)
(0.986799 -0.0190257 0)
(0.988278 -0.018037 0)
(0.968711 -0.0387924 0)
(0.968238 -0.0376856 0)
(0.967735 -0.0365573 0)
(0.967207 -0.0354089 0)
(0.966653 -0.0342433 0)
(0.966065 -0.0330624 0)
(0.965428 -0.0318679 0)
(0.964716 -0.0306619 0)
(0.963891 -0.0294466 0)
(0.962898 -0.0282245 0)
(0.961671 -0.026999 0)
(0.960132 -0.0257741 0)
(0.958215 -0.0245555 0)
(0.955883 -0.02335 0)
(0.953164 -0.0221652 0)
(0.950179 -0.0210076 0)
(0.947157 -0.0198803 0)
(0.944413 -0.0187805 0)
(0.942299 -0.0176984 0)
(0.95934 -0.0445862 0)
(0.958309 -0.043651 0)
(0.957348 -0.0426801 0)
(0.956447 -0.0416777 0)
(0.955605 -0.0406433 0)
(0.954831 -0.0395775 0)
(0.95414 -0.0384815 0)
(0.953561 -0.0373569 0)
(0.953137 -0.0362053 0)
(0.952925 -0.0350284 0)
(0.952999 -0.033827 0)
(0.953438 -0.0326012 0)
(0.954311 -0.0313487 0)
(0.955652 -0.0300654 0)
(0.957421 -0.0287453 0)
(0.959481 -0.0273825 0)
(0.961582 -0.025974 0)
(0.963388 -0.0245233 0)
(0.964547 -0.0230424 0)
(0.949338 -0.0559561 0)
(0.948347 -0.0543651 0)
(0.947344 -0.0527422 0)
(0.946341 -0.0510899 0)
(0.945343 -0.0494126 0)
(0.944351 -0.0477132 0)
(0.943356 -0.0459942 0)
(0.94234 -0.0442583 0)
(0.941272 -0.042508 0)
(0.940102 -0.0407461 0)
(0.93876 -0.0389755 0)
(0.937164 -0.0372005 0)
(0.93523 -0.035427 0)
(0.932901 -0.0336632 0)
(0.930189 -0.0319195 0)
(0.92721 -0.0302062 0)
(0.924212 -0.0285301 0)
(0.921551 -0.0268895 0)
(0.919616 -0.0252709 0)
(0.938189 -0.0656176 0)
(0.936594 -0.0643381 0)
(0.935093 -0.0630011 0)
(0.933676 -0.0616136 0)
(0.932344 -0.0601763 0)
(0.931103 -0.0586915 0)
(0.929967 -0.0571617 0)
(0.928961 -0.0555898 0)
(0.928121 -0.0539786 0)
(0.927499 -0.0523305 0)
(0.927164 -0.0506472 0)
(0.927196 -0.0489283 0)
(0.927674 -0.0471699 0)
(0.928643 -0.0453635 0)
(0.930076 -0.043495 0)
(0.931831 -0.0415459 0)
(0.933626 -0.0394991 0)
(0.935069 -0.0373455 0)
(0.935747 -0.035093 0)
(0.927233 -0.0814538 0)
(0.925545 -0.0793366 0)
(0.923873 -0.0771687 0)
(0.922237 -0.0749537 0)
(0.920647 -0.0726942 0)
(0.919106 -0.0703911 0)
(0.917612 -0.0680448 0)
(0.916152 -0.0656553 0)
(0.914698 -0.0632226 0)
(0.913206 -0.0607465 0)
(0.911602 -0.0582273 0)
(0.909792 -0.0556673 0)
(0.907666 -0.0530723 0)
(0.905126 -0.0504543 0)
(0.902134 -0.047834 0)
(0.898774 -0.04524 0)
(0.8953 -0.0427039 0)
(0.892137 -0.0402493 0)
(0.889785 -0.0378785 0)
(0.914678 -0.0945651 0)
(0.912322 -0.0927462 0)
(0.910085 -0.0908259 0)
(0.907956 -0.0888151 0)
(0.905933 -0.0867206 0)
(0.904019 -0.0845497 0)
(0.902224 -0.0823104 0)
(0.900564 -0.0800109 0)
(0.899066 -0.0776591 0)
(0.897772 -0.0752628 0)
(0.896743 -0.0728291 0)
(0.896066 -0.0703629 0)
(0.89584 -0.0678647 0)
(0.896161 -0.0653265 0)
(0.897065 -0.0627273 0)
(0.898469 -0.0600305 0)
(0.900101 -0.0571873 0)
(0.901498 -0.054152 0)
(0.902092 -0.0509055 0)
(0.902103 -0.11342 0)
(0.899412 -0.110567 0)
(0.896787 -0.107625 0)
(0.894248 -0.104603 0)
(0.891812 -0.1015 0)
(0.889487 -0.0983159 0)
(0.887273 -0.0950487 0)
(0.885165 -0.0916974 0)
(0.883143 -0.0882609 0)
(0.881168 -0.0847385 0)
(0.879178 -0.0811299 0)
(0.877071 -0.0774362 0)
(0.874713 -0.0736626 0)
(0.871944 -0.0698233 0)
(0.868623 -0.0659494 0)
(0.864719 -0.0620956 0)
(0.860415 -0.0583398 0)
(0.85619 -0.0547675 0)
(0.852775 -0.0514375 0)
(0.887697 -0.129721 0)
(0.884188 -0.126932 0)
(0.880846 -0.123956 0)
(0.877668 -0.120816 0)
(0.874648 -0.117532 0)
(0.871791 -0.114128 0)
(0.869105 -0.110626 0)
(0.8666 -0.10705 0)
(0.864296 -0.103422 0)
(0.862219 -0.0997667 0)
(0.860419 -0.0961054 0)
(0.858973 -0.0924604 0)
(0.857996 -0.0888505 0)
(0.857641 -0.0852858 0)
(0.858063 -0.0817569 0)
(0.859339 -0.0782211 0)
(0.86133 -0.0745911 0)
(0.863558 -0.0707427 0)
(0.865192 -0.0665592 0)
(0.872212 -0.15124 0)
(0.868001 -0.147182 0)
(0.863966 -0.142957 0)
(0.86012 -0.138578 0)
(0.8565 -0.134055 0)
(0.85312 -0.12939 0)
(0.84999 -0.124588 0)
(0.847113 -0.119659 0)
(0.844478 -0.114609 0)
(0.842064 -0.109448 0)
(0.839822 -0.104182 0)
(0.837667 -0.098818 0)
(0.835461 -0.0933602 0)
(0.832993 -0.0878177 0)
(0.829992 -0.0822146 0)
(0.826192 -0.0766103 0)
(0.82149 -0.0711237 0)
(0.816195 -0.0659382 0)
(0.811236 -0.061263 0)
(0.854869 -0.171561 0)
(0.849503 -0.167112 0)
(0.844404 -0.162279 0)
(0.839634 -0.157147 0)
(0.835183 -0.151746 0)
(0.831068 -0.146137 0)
(0.827308 -0.14037 0)
(0.823912 -0.134497 0)
(0.820893 -0.128574 0)
(0.818264 -0.122656 0)
(0.816047 -0.116801 0)
(0.814281 -0.111069 0)
(0.813052 -0.10552 0)
(0.812509 -0.100216 0)
(0.812892 -0.0952015 0)
(0.814496 -0.0904907 0)
(0.817535 -0.0860167 0)
(0.821832 -0.0815941 0)
(0.826464 -0.0769103 0)
(0.835175 -0.197155 0)
(0.828422 -0.190999 0)
(0.822112 -0.184523 0)
(0.816202 -0.177677 0)
(0.810775 -0.17053 0)
(0.805879 -0.163102 0)
(0.801531 -0.155435 0)
(0.797762 -0.147578 0)
(0.794574 -0.139577 0)
(0.791963 -0.131481 0)
(0.789897 -0.123332 0)
(0.788318 -0.115166 0)
(0.787111 -0.107008 0)
(0.786077 -0.0988743 0)
(0.784885 -0.0907733 0)
(0.783043 -0.0827276 0)
(0.779959 -0.0748319 0)
(0.775254 -0.067306 0)
(0.769373 -0.0605686 0)
(0.813435 -0.223645 0)
(0.804815 -0.216559 0)
(0.796658 -0.208597 0)
(0.78916 -0.200042 0)
(0.782376 -0.190934 0)
(0.776327 -0.181382 0)
(0.771091 -0.171502 0)
(0.766682 -0.161395 0)
(0.763129 -0.151188 0)
(0.760431 -0.141 0)
(0.758585 -0.130967 0)
(0.757582 -0.121228 0)
(0.757429 -0.11193 0)
(0.758183 -0.10323 0)
(0.76001 -0.0952849 0)
(0.763257 -0.0882509 0)
(0.768496 -0.0822066 0)
(0.776266 -0.0771111 0)
(0.786466 -0.0725647 0)
(0.788602 -0.256646 0)
(0.777332 -0.247091 0)
(0.766887 -0.236798 0)
(0.757328 -0.225643 0)
(0.748708 -0.213723 0)
(0.74123 -0.20119 0)
(0.734914 -0.188133 0)
(0.729859 -0.174723 0)
(0.726088 -0.1611 0)
(0.723627 -0.147421 0)
(0.722457 -0.133832 0)
(0.722532 -0.120465 0)
(0.723755 -0.107432 0)
(0.725956 -0.0948121 0)
(0.728829 -0.0826532 0)
(0.731849 -0.0709409 0)
(0.734085 -0.0597303 0)
(0.734321 -0.0490951 0)
(0.731105 -0.0394315 0)
(0.761783 -0.292958 0)
(0.747004 -0.281867 0)
(0.73332 -0.269087 0)
(0.720733 -0.254863 0)
(0.709679 -0.239531 0)
(0.700127 -0.223157 0)
(0.692306 -0.206047 0)
(0.686257 -0.188399 0)
(0.682067 -0.17047 0)
(0.679737 -0.152516 0)
(0.679266 -0.134809 0)
(0.680602 -0.117633 0)
(0.683676 -0.101291 0)
(0.688417 -0.0861145 0)
(0.694811 -0.072443 0)
(0.70299 -0.0607184 0)
(0.713563 -0.0512048 0)
(0.727288 -0.0443131 0)
(0.746134 -0.040147 0)
(0.731403 -0.337923 0)
(0.712342 -0.323798 0)
(0.694162 -0.307368 0)
(0.677962 -0.289318 0)
(0.66352 -0.26939 0)
(0.651362 -0.248148 0)
(0.641533 -0.225779 0)
(0.63424 -0.202645 0)
(0.629518 -0.179083 0)
(0.627448 -0.15543 0)
(0.628011 -0.132026 0)
(0.63118 -0.109206 0)
(0.636867 -0.0872868 0)
(0.644917 -0.0665328 0)
(0.655041 -0.0472009 0)
(0.666804 -0.029235 0)
(0.678909 -0.0128924 0)
(0.690458 0.00202057 0)
(0.697163 0.0156619 0)
(0.700768 -0.389508 0)
(0.674426 -0.372201 0)
(0.650933 -0.352455 0)
(0.629329 -0.329271 0)
(0.610719 -0.303916 0)
(0.595083 -0.276531 0)
(0.582788 -0.247645 0)
(0.573848 -0.217752 0)
(0.568447 -0.187262 0)
(0.566547 -0.15663 0)
(0.568202 -0.126294 0)
(0.573365 -0.0967115 0)
(0.581979 -0.068376 0)
(0.593924 -0.0418889 0)
(0.609102 -0.0177902 0)
(0.627166 0.0027362 0)
(0.649291 0.019344 0)
(0.674449 0.0305521 0)
(0.707473 0.0346237 0)
(0.664642 -0.451122 0)
(0.631954 -0.431201 0)
(0.600631 -0.405293 0)
(0.573068 -0.376106 0)
(0.549274 -0.343632 0)
(0.529806 -0.308593 0)
(0.514593 -0.27188 0)
(0.503952 -0.233899 0)
(0.497666 -0.195272 0)
(0.495901 -0.156445 0)
(0.498594 -0.117881 0)
(0.505811 -0.0800632 0)