/*--------------------------------*- C++ -*----------------------------------*\
  =========                 |
  \\      /  F ield         | OpenFOAM: The Open Source CFD Toolbox
   \\    /   O peration     | Website:  https://openfoam.org
    \\  /    A nd           | Version:  10
     \\/     M anipulation  |
\*---------------------------------------------------------------------------*/
FoamFile
{
    format      ascii;
    class       volVectorField;
    location    "0";
    object      U;
}
// * * * * * * * * * * * * * * * * * * * * * * * * * * * * * * * * * * * * * //

dimensions      [0 1 -1 0 0 0 0];

internalField   nonuniform List<vector> 
18483
(
(0.999994 -0.000230919 0)
(0.999994 -0.000816762 0)
(0.999995 -0.00128188 0)
(0.999996 -0.0017655 0)
(0.999997 -0.00220137 0)
(0.999999 -0.00259834 0)
(1 -0.00293949 0)
(1 -0.00321537 0)
(1.00001 -0.00341922 0)
(1.00001 -0.00354952 0)
(1.00002 -0.00361127 0)
(1.00003 -0.00361828 0)
(1.00006 -0.00358753 0)
(1.00009 -0.00356045 0)
(1.00014 -0.00358169 0)
(1.00018 -0.00367963 0)
(1.00015 -0.00382009 0)
(0.999774 -0.00391913 0)
(0.998378 -0.00392761 0)
(0.995345 -0.00384927 0)
(0.991431 -0.00379535 0)
(0.988982 -0.00385133 0)
(0.989414 -0.00391126 0)
(0.991686 -0.0038582 0)
(0.994117 -0.00370944 0)
(0.995946 -0.00352737 0)
(0.997137 -0.00335128 0)
(0.997866 -0.0031983 0)
(0.998298 -0.00307225 0)
(1.00071 -0.000710631 0)
(1.00072 -0.00249775 0)
(1.00076 -0.00391625 0)
(1.00079 -0.00539636 0)
(1.00081 -0.00672604 0)
(1.00079 -0.00793933 0)
(1.00074 -0.0089825 0)
(1.00065 -0.00982773 0)
(1.00051 -0.0104512 0)
(1.00034 -0.0108442 0)
(1.00014 -0.0110115 0)
(0.999921 -0.0109802 0)
(0.999722 -0.010787 0)
(0.999559 -0.0103901 0)
(0.99944 -0.00971778 0)
(0.999321 -0.0087238 0)
(0.999181 -0.00747647 0)
(0.999275 -0.00618392 0)
(1.00046 -0.00505937 0)
(1.00378 -0.00429121 0)
(1.00858 -0.00380857 0)
(1.01166 -0.00336181 0)
(1.01075 -0.00296042 0)
(1.0073 -0.00272994 0)
(1.00385 -0.00263039 0)
(1.00147 -0.00256581 0)
(1.00005 -0.002491 0)
(0.999274 -0.00239435 0)
(0.998864 -0.00227991 0)
(1.00212 -0.00117269 0)
(1.00217 -0.00410082 0)
(1.00229 -0.00643825 0)
(1.00238 -0.00889873 0)
(1.00243 -0.0111216 0)
(1.0024 -0.0131784 0)
(1.00226 -0.0149754 0)
(1.00199 -0.0164696 0)
(1.00159 -0.0176188 0)
(1.00108 -0.0184082 0)
(1.00047 -0.0188434 0)
(0.999811 -0.0189402 0)
(0.99915 -0.0187397 0)
(0.998517 -0.0183099 0)
(0.997868 -0.0178015 0)
(0.997147 -0.0174635 0)
(0.996344 -0.017377 0)
(0.995342 -0.0173559 0)
(0.993567 -0.0171312 0)
(0.9902 -0.0164506 0)
(0.985695 -0.0152453 0)
(0.982747 -0.0138469 0)
(0.983511 -0.0125719 0)
(0.98663 -0.0113761 0)
(0.989578 -0.0102453 0)
(0.991446 -0.00924648 0)
(0.992441 -0.00839409 0)
(0.992915 -0.00767605 0)
(0.993108 -0.00707462 0)
(1.00388 -0.00158907 0)
(1.00399 -0.0055399 0)
(1.00421 -0.00872102 0)
(1.00439 -0.0121061 0)
(1.00452 -0.0152012 0)
(1.00449 -0.0181195 0)
(1.00427 -0.0207273 0)
(1.00382 -0.0229657 0)
(1.00315 -0.0247635 0)
(1.00227 -0.0260825 0)
(1.00123 -0.0269069 0)
(1.00009 -0.0272387 0)
(0.998914 -0.0271304 0)
(0.997732 -0.0266884 0)
(0.996575 -0.02599 0)
(0.995487 -0.0248932 0)
(0.99452 -0.0232153 0)
(0.993779 -0.0211017 0)
(0.993785 -0.0189302 0)
(0.995551 -0.0170809 0)
(0.999105 -0.0158297 0)
(1.00179 -0.0150387 0)
(1.00082 -0.0143361 0)
(0.997123 -0.0137115 0)
(0.993504 -0.0132195 0)
(0.991099 -0.0127743 0)
(0.989683 -0.0123365 0)
(0.988851 -0.0119043 0)
(0.988341 -0.0114837 0)
(1.00578 -0.00194281 0)
(1.00596 -0.00676225 0)
(1.00631 -0.0106812 0)
(1.00662 -0.0149007 0)
(1.00685 -0.0188182 0)
(1.00688 -0.0225878 0)
(1.00663 -0.0260401 0)
(1.00604 -0.0290987 0)
(1.0051 -0.0316565 0)
(1.00383 -0.0336444 0)
(1.00229 -0.0350268 0)
(1.00053 -0.0358145 0)
(0.998622 -0.0360687 0)
(0.996661 -0.0358704 0)
(0.994728 -0.0353276 0)
(0.992839 -0.0346276 0)
(0.990879 -0.0340565 0)
(0.988671 -0.0337353 0)
(0.985876 -0.033394 0)
(0.981965 -0.0325868 0)
(0.977096 -0.031033 0)
(0.973394 -0.0289054 0)
(0.973337 -0.026764 0)
(0.976115 -0.024832 0)
(0.978874 -0.0230135 0)
(0.980434 -0.021374 0)
(0.981093 -0.0199551 0)
(0.981278 -0.0187427 0)
(0.98124 -0.0177186 0)
(1.00775 -0.00223115 0)
(1.00803 -0.00775797 0)
(1.00853 -0.0122986 0)
(1.00902 -0.0172458 0)
(1.00942 -0.0219138 0)
(1.00957 -0.0265004 0)
(1.00936 -0.0308067 0)
(1.00869 -0.0347432 0)
(1.00754 -0.0381701 0)
(1.0059 -0.0409893 0)
(1.00384 -0.0431374 0)
(1.00145 -0.0445995 0)
(0.998879 -0.0453913 0)
(0.996266 -0.0455277 0)
(0.993727 -0.0450696 0)
(0.991316 -0.0440738 0)
(0.989029 -0.0424831 0)
(0.986853 -0.0402442 0)
(0.985035 -0.0375908 0)
(0.984452 -0.0350608 0)
(0.985783 -0.0331495 0)
(0.987455 -0.0319776 0)
(0.986474 -0.0310668 0)
(0.982674 -0.0300821 0)
(0.978736 -0.0291902 0)
(0.976117 -0.0283836 0)
(0.974544 -0.0275961 0)
(0.973555 -0.0268363 0)
(0.972888 -0.0261112 0)
(1.00976 -0.00246006 0)
(1.01016 -0.00854678 0)
(1.01084 -0.0135976 0)
(1.01156 -0.0191633 0)
(1.0122 -0.0244984 0)
(1.01254 -0.029847 0)
(1.01246 -0.034989 0)
(1.01182 -0.0398268 0)
(1.01055 -0.0441896 0)
(1.00864 -0.0479418 0)
(1.00617 -0.0509661 0)
(1.00324 -0.0531811 0)
(1.00002 -0.0545546 0)
(0.996652 -0.0550922 0)
(0.993218 -0.0548728 0)
(0.989765 -0.0540974 0)
(0.986267 -0.0531351 0)
(0.982614 -0.0523626 0)
(0.978627 -0.0518433 0)
(0.973969 -0.051238 0)
(0.968459 -0.0500314 0)
(0.963335 -0.0479308 0)
(0.961135 -0.0453734 0)
(0.962261 -0.042964 0)
(0.964136 -0.0406542 0)
(0.965053 -0.0384475 0)
(0.965201 -0.0364826 0)
(0.965013 -0.0347709 0)
(0.964706 -0.0333033 0)
(1.01176 -0.00263956 0)
(1.0123 -0.00916261 0)
(1.01318 -0.0146249 0)
(1.01416 -0.0207069 0)
(1.01509 -0.0266216 0)
(1.01571 -0.0326614 0)
(1.01585 -0.0385938 0)
(1.01533 -0.04432 0)
(1.01405 -0.0496426 0)
(1.01197 -0.0543905 0)
(1.00913 -0.0584001 0)
(1.00561 -0.0615459 0)
(1.00158 -0.0637755 0)
(0.997185 -0.0650972 0)
(0.992597 -0.06556 0)
(0.987997 -0.0652123 0)
(0.983601 -0.0640409 0)
(0.979621 -0.0619583 0)
(0.976249 -0.0590563 0)
(0.973909 -0.0558479 0)
(0.973174 -0.0530152 0)
(0.973362 -0.0510473 0)
(0.971878 -0.0497064 0)
(0.967526 -0.0483157 0)
(0.962542 -0.0469165 0)
(0.958999 -0.0456789 0)
(0.956766 -0.044476 0)
(0.955254 -0.0433019 0)
(0.954157 -0.0421778 0)
(1.01372 -0.00278028 0)
(1.01439 -0.0096413 0)
(1.01549 -0.0154322 0)
(1.01676 -0.0219393 0)
(1.01802 -0.0283483 0)
(1.01897 -0.0350005 0)
(1.01941 -0.041661 0)
(1.01911 -0.0482389 0)
(1.01793 -0.0545218 0)
(1.01577 -0.0603158 0)
(1.01264 -0.0654254 0)
(1.00863 -0.0696823 0)
(1.00388 -0.0729675 0)
(0.998627 -0.0751976 0)
(0.993097 -0.0763211 0)
(0.987492 -0.0763362 0)
(0.981963 -0.0754561 0)
(0.97659 -0.0742755 0)
(0.971304 -0.0733602 0)
(0.965746 -0.0726315 0)
(0.959351 -0.0714905 0)
(0.95253 -0.0693742 0)
(0.947569 -0.0663774 0)
(0.946183 -0.0633154 0)
(0.946651 -0.0604501 0)
(0.946601 -0.0576086 0)
(0.94586 -0.0549866 0)
(0.944941 -0.0526668 0)
(0.944042 -0.0506386 0)
(1.01559 -0.00289129 0)
(1.01639 -0.0100139 0)
(1.01772 -0.0160656 0)
(1.01929 -0.0229191 0)
(1.0209 -0.0297421 0)
(1.02224 -0.0369261 0)
(1.02304 -0.0442417 0)
(1.02305 -0.0516141 0)
(1.02209 -0.0588264 0)
(1.02001 -0.065671 0)
(1.01678 -0.0719219 0)
(1.01247 -0.0773611 0)
(1.00721 -0.0817999 0)
(1.00119 -0.0851022 0)
(0.994594 -0.0872254 0)
(0.987635 -0.0882293 0)
(0.980604 -0.0882099 0)
(0.973976 -0.0871227 0)
(0.968217 -0.0847619 0)
(0.963574 -0.0812693 0)
(0.960379 -0.077419 0)
(0.958618 -0.0741652 0)
(0.956348 -0.0718728 0)
(0.95135 -0.0698313 0)
(0.944869 -0.0676703 0)
(0.939706 -0.0657299 0)
(0.936277 -0.0639214 0)
(0.933806 -0.0621523 0)
(0.931914 -0.0604724 0)
(1.01732 -0.00297973 0)
(1.01827 -0.0103052 0)
(1.01982 -0.0165632 0)
(1.0217 -0.023696 0)
(1.02368 -0.0308595 0)
(1.02543 -0.038496 0)
(1.02666 -0.0463867 0)
(1.02707 -0.0544785 0)
(1.02644 -0.0625597 0)
(1.02458 -0.0704198 0)
(1.02141 -0.0778155 0)
(1.01693 -0.0845032 0)
(1.01123 -0.090264 0)
(1.00445 -0.0949271 0)
(0.996811 -0.0983816 0)
(0.988649 -0.100541 0)
(0.980398 -0.101337 0)
(0.972455 -0.100942 0)
(0.964856 -0.100001 0)
(0.957227 -0.0991201 0)
(0.949047 -0.098066 0)
(0.940198 -0.0960056 0)
(0.93222 -0.0925729 0)
(0.927701 -0.0886395 0)
(0.926356 -0.0849908 0)
(0.92524 -0.0813902 0)
(0.923358 -0.077937 0)
(0.921386 -0.074859 0)
(0.919601 -0.0721332 0)
(1.01893 -0.00305116 0)
(1.02 -0.0105348 0)
(1.02177 -0.0169553 0)
(1.02395 -0.0243114 0)
(1.02632 -0.0317504 0)
(1.0285 -0.0397643 0)
(1.03019 -0.048149 0)
(1.03107 -0.0568788 0)
(1.03085 -0.0657564 0)
(1.02932 -0.0745833 0)
(1.02633 -0.083116 0)
(1.02183 -0.091102 0)
(1.01588 -0.0982908 0)
(1.00861 -0.104438 0)
(1.00026 -0.109326 0)
(0.991116 -0.112809 0)
(0.981544 -0.114855 0)
(0.971947 -0.115503 0)
(0.962822 -0.114619 0)
(0.954678 -0.11195 0)
(0.948037 -0.107833 0)
(0.943331 -0.103536 0)
(0.939499 -0.100236 0)
(0.933705 -0.0975497 0)
(0.925496 -0.0945771 0)
(0.918009 -0.0916867 0)
(0.912838 -0.0890679 0)
(0.90905 -0.086483 0)
(0.906044 -0.0840146 0)
(1.02041 -0.00310983 0)
(1.02161 -0.0107176 0)
(1.02358 -0.0172661 0)
(1.02606 -0.0247993 0)
(1.0288 -0.0324571 0)
(1.03142 -0.0407807 0)
(1.0336 -0.0495831 0)
(1.03497 -0.0588694 0)
(1.03524 -0.068464 0)
(1.03414 -0.0781889 0)
(1.03149 -0.0878086 0)
(1.0272 -0.0970652 0)
(1.02128 -0.105682 0)
(1.0138 -0.113376 0)
(1.0049 -0.119895 0)
(0.994805 -0.125061 0)
(0.983896 -0.128728 0)
(0.972719 -0.13074 0)
(0.961721 -0.131242 0)
(0.950876 -0.130978 0)
(0.939799 -0.130486 0)
(0.928121 -0.129142 0)
(0.916535 -0.12588 0)
(0.907819 -0.121163 0)
(0.903625 -0.116503 0)
(0.901149 -0.11203 0)
(0.897851 -0.107516 0)
(0.894375 -0.103408 0)
(0.891314 -0.0997492 0)
(1.02177 -0.00315885 0)
(1.02308 -0.0108646 0)
(1.02526 -0.0175138 0)
(1.02801 -0.0251866 0)
(1.03111 -0.0330152 0)
(1.03417 -0.0415889 0)
(1.03684 -0.0507388 0)
(1.03875 -0.060501 0)
(1.03956 -0.0707247 0)
(1.03899 -0.0812566 0)
(1.03682 -0.0918766 0)
(1.03291 -0.102337 0)
(1.02721 -0.112369 0)
(1.01968 -0.121691 0)
(1.01041 -0.130014 0)
(0.999604 -0.137054 0)
(0.987657 -0.142527 0)
(0.975064 -0.146194 0)
(0.96231 -0.147901 0)
(0.949992 -0.147399 0)
(0.938921 -0.144524 0)
(0.92994 -0.140068 0)
(0.923018 -0.135874 0)
(0.915633 -0.132726 0)
(0.905348 -0.12932 0)
(0.894473 -0.125417 0)
(0.886443 -0.121795 0)
(0.880698 -0.118194 0)
(0.876052 -0.114621 0)
(1.02301 -0.00320044 0)
(1.02442 -0.0109838 0)
(1.02679 -0.0177123 0)
(1.02981 -0.0254942 0)
(1.03325 -0.0334532 0)
(1.03674 -0.0422255 0)
(1.03989 -0.051659 0)
(1.04234 -0.0618191 0)
(1.04374 -0.0725823 0)
(1.04376 -0.0838244 0)
(1.04215 -0.0953505 0)
(1.03873 -0.10694 0)
(1.03338 -0.118346 0)
(1.02604 -0.12929 0)
(1.01673 -0.139441 0)
(1.00558 -0.148445 0)
(0.992857 -0.155974 0)
(0.978963 -0.161729 0)
(0.964422 -0.16551 0)
(0.94966 -0.167606 0)
(0.934702 -0.168834 0)
(0.919237 -0.169271 0)
(0.903195 -0.16754 0)
(0.888774 -0.162819 0)
(0.87959 -0.156941 0)
(0.87463 -0.151362 0)
(0.86945 -0.145535 0)
(0.863668 -0.139902 0)
(0.858621 -0.134885 0)
(1.02415 -0.00323617 0)
(1.02565 -0.0110811 0)
(1.02818 -0.0178718 0)
(1.03145 -0.0257384 0)
(1.03522 -0.0337943 0)
(1.03911 -0.0427215 0)
(1.04274 -0.0523817 0)
(1.04573 -0.062869 0)
(1.04771 -0.0740887 0)
(1.04835 -0.0859485 0)
(1.04736 -0.0982826 0)
(1.04453 -0.1109 0)
(1.03972 -0.123576 0)
(1.03283 -0.136046 0)
(1.0238 -0.147991 0)
(1.0126 -0.159053 0)
(0.999375 -0.168867 0)
(0.984501 -0.177027 0)
(0.968528 -0.183108 0)
(0.952091 -0.18667 0)
(0.936069 -0.187128 0)
(0.921533 -0.184375 0)
(0.909412 -0.18007 0)
(0.898772 -0.176641 0)
(0.885886 -0.173524 0)
(0.870413 -0.168994 0)
(0.857413 -0.164131 0)
(0.848353 -0.159349 0)
(0.8411 -0.154285 0)
(1.02518 -0.00326717 0)
(1.02676 -0.011161 0)
(1.02946 -0.0180003 0)
(1.03294 -0.0259318 0)
(1.03702 -0.0340571 0)
(1.04129 -0.0431026 0)
(1.04537 -0.052941 0)
(1.04889 -0.0636931 0)
(1.05145 -0.0752943 0)
(1.05271 -0.0876811 0)
(1.05239 -0.100715 0)
(1.05025 -0.114233 0)
(1.04614 -0.128041 0)
(1.0399 -0.141917 0)
(1.03136 -0.155591 0)
(1.0204 -0.168719 0)
(1.00708 -0.180895 0)
(0.991667 -0.191649 0)
(0.974594 -0.200498 0)
(0.956293 -0.207169 0)
(0.937056 -0.212114 0)
(0.916839 -0.216041 0)
(0.895421 -0.217975 0)
(0.873838 -0.215461 0)
(0.856531 -0.209043 0)
(0.846276 -0.202121 0)
(0.838259 -0.195009 0)
(0.829003 -0.187323 0)
(0.820604 -0.180274 0)
(1.02613 -0.00329422 0)
(1.02778 -0.0112265 0)
(1.03063 -0.0181037 0)
(1.03431 -0.026084 0)
(1.03867 -0.0342568 0)
(1.0433 -0.0433907 0)
(1.0478 -0.0533661 0)
(1.05182 -0.0643289 0)
(1.05495 -0.0762426 0)
(1.05685 -0.0890687 0)
(1.05722 -0.102693 0)
(1.05583 -0.116984 0)
(1.05248 -0.131788 0)
(1.04699 -0.146935 0)
(1.03913 -0.162207 0)
(1.02874 -0.177295 0)
(1.01574 -0.191813 0)
(1.00024 -0.205311 0)
(0.982546 -0.217269 0)
(0.963068 -0.227033 0)
(0.942487 -0.233633 0)
(0.921935 -0.235849 0)
(0.902794 -0.233829 0)
(0.886165 -0.230753 0)
(0.869429 -0.228897 0)
(0.848528 -0.225403 0)
(0.827455 -0.2195 0)
(0.812135 -0.213386 0)
(0.800513 -0.206574 0)
(1.02699 -0.00331783 0)
(1.02872 -0.01128 0)
(1.0317 -0.0181863 0)
(1.03556 -0.0262025 0)
(1.04019 -0.0344053 0)
(1.04513 -0.0436036 0)
(1.05004 -0.0536811 0)
(1.05453 -0.0648077 0)
(1.05821 -0.0769726 0)
(1.06073 -0.0901587 0)
(1.06179 -0.104277 0)
(1.06114 -0.119225 0)
(1.05859 -0.134887 0)
(1.05393 -0.15114 0)
(1.04695 -0.167823 0)
(1.0374 -0.184699 0)
(1.02509 -0.201456 0)
(1.00998 -0.217687 0)
(0.992254 -0.232857 0)
(0.972095 -0.246288 0)
(0.949593 -0.25755 0)
(0.924719 -0.267236 0)
(0.897456 -0.275637 0)
(0.868107 -0.279769 0)
(0.839656 -0.27622 0)
(0.818817 -0.268367 0)
(0.805242 -0.260355 0)
(0.791104 -0.250837 0)
(0.776801 -0.240932 0)
(1.02779 -0.00333839 0)
(1.02957 -0.0113233 0)
(1.03267 -0.0182519 0)
(1.0367 -0.0262933 0)
(1.04157 -0.0345127 0)
(1.0468 -0.043756 0)
(1.05208 -0.0539064 0)
(1.05702 -0.0651575 0)
(1.06123 -0.0775215 0)
(1.06434 -0.0910004 0)
(1.06605 -0.105527 0)
(1.06614 -0.121025 0)
(1.06439 -0.137406 0)
(1.06064 -0.154589 0)
(1.05466 -0.17248 0)
(1.04615 -0.190935 0)
(1.03483 -0.209742 0)
(1.02057 -0.228575 0)
(1.00338 -0.246986 0)
(0.983233 -0.264334 0)
(0.960132 -0.279556 0)
(0.934679 -0.29081 0)
(0.908349 -0.295976 0)
(0.883127 -0.296055 0)
(0.859839 -0.296513 0)
(0.833334 -0.297364 0)
(0.80153 -0.29299 0)
(0.774253 -0.285674 0)
(0.754734 -0.277438 0)
(1.02851 -0.0033562 0)
(1.03034 -0.011358 0)
(1.03356 -0.0183033 0)
(1.03773 -0.0263613 0)
(1.04282 -0.034587 0)
(1.04832 -0.0438598 0)
(1.05394 -0.0540591 0)
(1.0593 -0.0654028 0)
(1.06399 -0.0779229 0)
(1.06766 -0.0916375 0)
(1.07 -0.106497 0)
(1.0708 -0.122444 0)
(1.06988 -0.139413 0)
(1.06706 -0.15736 0)
(1.06213 -0.17626 0)
(1.05476 -0.19606 0)
(1.04468 -0.216659 0)
(1.03166 -0.237857 0)
(1.01556 -0.259321 0)
(0.99618 -0.280485 0)
(0.973062 -0.300427 0)
(0.945665 -0.318637 0)
(0.913782 -0.336154 0)
(0.877535 -0.352198 0)
(0.837492 -0.359657 0)
(0.799942 -0.355038 0)
(0.773622 -0.346697 0)
(0.752508 -0.337304 0)
(0.728931 -0.324424 0)
(1.02916 -0.00337158 0)
(1.03104 -0.0113853 0)
(1.03435 -0.0183432 0)
(1.03866 -0.0264107 0)
(1.04395 -0.0346351 0)
(1.04969 -0.0439252 0)
(1.05563 -0.0541543 0)
(1.06137 -0.0655652 0)
(1.06651 -0.0782054 0)
(1.0707 -0.0921068 0)
(1.07365 -0.107234 0)
(1.07514 -0.123542 0)
(1.07501 -0.140984 0)
(1.07311 -0.15955 0)
(1.06922 -0.179269 0)
(1.06307 -0.20017 0)
(1.05438 -0.222271 0)
(1.0429 -0.245524 0)
(1.02836 -0.269745 0)
(1.01037 -0.294577 0)
(0.988206 -0.319281 0)
(0.961342 -0.342311 0)
(0.930528 -0.360686 0)
(0.897449 -0.370993 0)
(0.86434 -0.375985 0)
(0.830741 -0.38411 0)
(0.788732 -0.389199 0)
(0.742135 -0.38346 0)
(0.706385 -0.374518 0)
(1.02974 -0.00338479 0)
(1.03167 -0.0114065 0)
(1.03507 -0.0183735 0)
(1.0395 -0.0264451 0)
(1.04497 -0.0346625 0)
(1.05093 -0.0439605 0)
(1.05716 -0.0542045 0)
(1.06325 -0.0656622 0)
(1.06881 -0.0783923 0)
(1.07349 -0.0924391 0)
(1.077 -0.107778 0)
(1.07914 -0.124375 0)
(1.07975 -0.142195 0)
(1.07871 -0.16125 0)
(1.07585 -0.181614 0)
(1.07094 -0.203383 0)
(1.06373 -0.226689 0)
(1.05398 -0.251646 0)
(1.04136 -0.278244 0)
(1.02532 -0.306299 0)
(1.00503 -0.335291 0)
(0.979294 -0.364195 0)
(0.946825 -0.392862 0)
(0.907222 -0.4234 0)
(0.859747 -0.452783 0)
(0.804245 -0.465947 0)
(0.753067 -0.460792 0)
(0.716733 -0.45355 0)
(0.681479 -0.441289 0)
(1.03027 -0.00339608 0)
(1.03224 -0.0114226 0)
(1.03572 -0.0183961 0)
(1.04024 -0.0264675 0)
(1.04588 -0.0346742 0)
(1.05203 -0.0439727 0)
(1.05853 -0.0542202 0)
(1.06494 -0.0657087 0)
(1.07088 -0.078504 0)
(1.07601 -0.0926625 0)
(1.08005 -0.108168 0)
(1.08278 -0.124994 0)
(1.08409 -0.143111 0)
(1.08386 -0.162546 0)
(1.08199 -0.1834 0)
(1.0783 -0.205832 0)
(1.07257 -0.230067 0)
(1.06463 -0.256365 0)
(1.05417 -0.28491 0)
(1.04051 -0.315693 0)
(1.02267 -0.348562 0)
(0.999408 -0.383051 0)
(0.969661 -0.417343 0)
(0.933899 -0.446726 0)
(0.893014 -0.465713 0)
(0.849228 -0.481293 0)
(0.799291 -0.505315 0)
(0.731837 -0.516409 0)
(0.662838 -0.507723 0)
(1.03074 -0.0034057 0)
(1.03274 -0.0114346 0)
(1.03629 -0.0184124 0)
(1.04091 -0.0264805 0)
(1.0467 -0.0346739 0)
(1.05302 -0.0439676 0)
(1.05976 -0.0542101 0)
(1.06645 -0.0657169 0)
(1.07274 -0.0785577 0)
(1.07829 -0.0928011 0)
(1.0828 -0.108437 0)
(1.08608 -0.125442 0)
(1.08803 -0.14379 0)
(1.08856 -0.16351 0)
(1.08763 -0.184727 0)
(1.08509 -0.207646 0)
(1.0808 -0.232565 0)
(1.07467 -0.259863 0)
(1.06647 -0.289908 0)
(1.05548 -0.322901 0)
(1.0406 -0.358883 0)
(1.02078 -0.39783 0)
(0.994226 -0.439167 0)
(0.957666 -0.483415 0)
(0.910171 -0.535722 0)
(0.849274 -0.590177 0)
(0.769435 -0.614464 0)
(0.692352 -0.61001 0)
(0.635398 -0.604775 0)
(1.03116 -0.00341385 0)
(1.0332 -0.0114432 0)
(1.0368 -0.0184237 0)
(1.0415 -0.0264863 0)
(1.04742 -0.0346651 0)
(1.0539 -0.0439499 0)
(1.06085 -0.0541817 0)
(1.0678 -0.0656972 0)
(1.07441 -0.0785684 0)
(1.08033 -0.0928752 0)
(1.08527 -0.108612 0)
(1.08905 -0.125756 0)
(1.09159 -0.144279 0)
(1.09282 -0.164211 0)
(1.09274 -0.185687 0)
(1.09127 -0.208945 0)
(1.08836 -0.234345 0)
(1.08397 -0.262348 0)
(1.07799 -0.293467 0)
(1.06983 -0.328134 0)
(1.05825 -0.366561 0)
(1.04216 -0.409163 0)
(1.02049 -0.456705 0)
(0.990852 -0.507586 0)
(0.951425 -0.553922 0)
(0.901862 -0.586717 0)
(0.844709 -0.626196 0)
(0.765492 -0.68694 0)
(0.646094 -0.702429 0)
(1.03153 -0.00342071 0)
(1.0336 -0.0114493 0)
(1.03726 -0.0184311 0)
(1.04203 -0.0264869 0)
(1.04806 -0.0346502 0)
(1.05468 -0.0439235 0)
(1.06182 -0.0541406 0)
(1.069 -0.0656578 0)
(1.0759 -0.0785476 0)
(1.08215 -0.0929008 0)
(1.08749 -0.108714 0)
(1.09172 -0.125964 0)
(1.09478 -0.144619 0)
(1.09665 -0.164705 0)
(1.09734 -0.186357 0)
(1.09685 -0.209836 0)
(1.09522 -0.235547 0)
(1.09248 -0.264017 0)
(1.0886 -0.295841 0)
(1.08319 -0.331651 0)
(1.07514 -0.371923 0)
(1.06315 -0.417104 0)
(1.04698 -0.468484 0)
(1.02426 -0.527106 0)
(0.986095 -0.593855 0)
(0.932043 -0.682064 0)
(0.862024 -0.791287 0)
(0.738019 -0.84783 0)
(0.583325 -0.84121 0)
(1.03186 -0.00342647 0)
(1.03395 -0.0114534 0)
(1.03766 -0.0184354 0)
(1.0425 -0.0264836 0)
(1.04863 -0.0346314 0)
(1.05537 -0.0438917 0)
(1.06268 -0.0540918 0)
(1.07006 -0.0656056 0)
(1.07722 -0.0785052 0)
(1.08377 -0.0928916 0)
(1.08946 -0.108763 0)
(1.0941 -0.126094 0)
(1.09763 -0.144846 0)
(1.10007 -0.16504 0)
(1.10145 -0.186807 0)
(1.10185 -0.210415 0)
(1.10136 -0.236301 0)
(1.10017 -0.265048 0)
(1.09825 -0.297297 0)
(1.09536 -0.333777 0)
(1.09083 -0.375271 0)
(1.08326 -0.422313 0)
(1.07207 -0.476184 0)
(1.05737 -0.540829 0)
(1.03502 -0.617135 0)
(0.998224 -0.688875 0)
(0.94116 -0.741329 0)
(0.868994 -0.845095 0)
(0.713817 -0.999896 0)
(1.03216 -0.00343126 0)
(1.03427 -0.0114559 0)
(1.03801 -0.0184375 0)
(1.04291 -0.0264776 0)
(1.04913 -0.0346103 0)
(1.05598 -0.0438567 0)
(1.06344 -0.0540388 0)
(1.07101 -0.0655454 0)
(1.07838 -0.0784484 0)
(1.08521 -0.0928576 0)
(1.09121 -0.108772 0)
(1.09621 -0.126163 0)
(1.10016 -0.144988 0)
(1.1031 -0.165254 0)
(1.1051 -0.187088 0)
(1.10628 -0.210758 0)
(1.10683 -0.236716 0)
(1.10701 -0.265588 0)
(1.1069 -0.298052 0)
(1.1063 -0.334842 0)
(1.10495 -0.376947 0)
(1.10187 -0.42523 0)
(1.09592 -0.480523 0)
(1.08906 -0.546825 0)
(1.08018 -0.628693 0)
(1.04925 -0.721529 0)
(0.996346 -0.860162 0)
(0.936756 -1.10689 0)
(0.674625 -1.20751 0)
(0.998548 -0.00296964 0)
(0.998691 -0.00287769 0)
(0.998749 -0.00278748 0)
(0.998722 -0.00269903 0)
(0.998598 -0.00261201 0)
(0.998363 -0.00252554 0)
(0.997991 -0.00243847 0)
(0.997455 -0.00234948 0)
(0.996728 -0.00225708 0)
(0.995787 -0.00215972 0)
(0.994623 -0.0020559 0)
(0.993247 -0.00194424 0)
(0.991695 -0.0018235 0)
(0.990033 -0.00169259 0)
(0.988357 -0.00155051 0)
(0.986784 -0.0013962 0)
(0.985439 -0.00122856 0)
(0.98444 -0.0010465 0)
(0.983881 -0.000849111 0)
(0.998659 -0.00215731 0)
(0.998563 -0.002029 0)
(0.998545 -0.00189214 0)
(0.998597 -0.00174825 0)
(0.998718 -0.00159705 0)
(0.998917 -0.00143842 0)
(0.99921 -0.00127239 0)
(0.999617 -0.00109899 0)
(1.00016 -0.000918301 0)
(1.00087 -0.000730496 0)
(1.00175 -0.000535858 0)
(1.00279 -0.000334851 0)
(1.00397 -0.000128266 0)
(1.00523 8.25238e-05 0)
(1.00649 0.000295242 0)
(1.00762 0.000506399 0)
(1.00853 0.000711142 0)
(1.00909 0.000903424 0)
(1.00923 0.00107663 0)
(0.993149 -0.00656489 0)
(0.993103 -0.0060908 0)
(0.99298 -0.00561056 0)
(0.992778 -0.00512371 0)
(0.992491 -0.00463119 0)
(0.992104 -0.00413399 0)
(0.991597 -0.0036339 0)
(0.99095 -0.00313391 0)
(0.990141 -0.00263835 0)
(0.989157 -0.00215303 0)
(0.987995 -0.0016853 0)
(0.986673 -0.00124382 0)
(0.985233 -0.000837898 0)
(0.983751 -0.000476483 0)
(0.982331 -0.000166673 0)
(0.981097 8.7971e-05 0)
(0.980182 0.000288983 0)
(0.979701 0.000443985 0)
(0.979728 0.000566652 0)
(0.988009 -0.0110855 0)
(0.987769 -0.0106974 0)
(0.98759 -0.0103034 0)
(0.987472 -0.00990733 0)
(0.987429 -0.00951065 0)
(0.987484 -0.00911517 0)
(0.987673 -0.00872281 0)
(0.988038 -0.00833495 0)
(0.98863 -0.00795188 0)
(0.989497 -0.00757203 0)
(0.990677 -0.00719126 0)
(0.992184 -0.0068023 0)
(0.993993 -0.00639469 0)
(0.996029 -0.00595555 0)
(0.998164 -0.00547118 0)
(1.00022 -0.00492975 0)
(1.00197 -0.0043243 0)
(1.00323 -0.00365566 0)
(1.00381 -0.00293396 0)
(0.981107 -0.0168474 0)
(0.980926 -0.0160374 0)
(0.980705 -0.0152198 0)
(0.980451 -0.0143944 0)
(0.980164 -0.0135628 0)
(0.979836 -0.0127255 0)
(0.97945 -0.0118832 0)
(0.978974 -0.0110369 0)
(0.978368 -0.0101884 0)
(0.977584 -0.00934057 0)
(0.97657 -0.00849871 0)
(0.975288 -0.00767075 0)
(0.973724 -0.0068679 0)
(0.971911 -0.0061042 0)
(0.969939 -0.00539497 0)
(0.967968 -0.004754 0)
(0.966212 -0.00418969 0)
(0.964908 -0.00370119 0)
(0.964268 -0.00327576 0)
(0.972409 -0.0254334 0)
(0.972027 -0.024778 0)
(0.971705 -0.0241153 0)
(0.971446 -0.0234493 0)
(0.971263 -0.02278 0)
(0.971179 -0.0221075 0)
(0.971228 -0.021432 0)
(0.971457 -0.0207534 0)
(0.971922 -0.0200705 0)
(0.972691 -0.0193806 0)
(0.97383 -0.0186782 0)
(0.975393 -0.0179537 0)
(0.9774 -0.0171924 0)
(0.979812 -0.0163739 0)
(0.98251 -0.0154734 0)
(0.985282 -0.0144655 0)
(0.987834 -0.0133289 0)
(0.989826 -0.0120543 0)
(0.990939 -0.01065 0)
(0.964375 -0.0320418 0)
(0.964036 -0.0308582 0)
(0.963681 -0.029653 0)
(0.963316 -0.0284264 0)
(0.96294 -0.0271793 0)
(0.962546 -0.0259111 0)
(0.962112 -0.0246197 0)
(0.961604 -0.023303 0)
(0.960968 -0.0219583 0)
(0.960132 -0.0205836 0)
(0.959002 -0.0191786 0)
(0.957481 -0.0177475 0)
(0.955481 -0.0163008 0)
(0.95296 -0.0148577 0)
(0.949959 -0.0134463 0)
(0.94664 -0.0121015 0)
(0.943298 -0.0108589 0)
(0.940347 -0.00974616 0)
(0.93824 -0.00877246 0)
(0.953317 -0.0411203 0)
(0.952602 -0.0400889 0)
(0.951945 -0.0390335 0)
(0.95134 -0.0379595 0)
(0.95079 -0.0368665 0)
(0.950303 -0.035755 0)
(0.9499 -0.034626 0)
(0.949612 -0.0334814 0)
(0.949489 -0.0323237 0)
(0.949604 -0.0311556 0)
(0.950052 -0.0299797 0)
(0.950945 -0.0287957 0)
(0.952395 -0.027598 0)
(0.954478 -0.0263721 0)
(0.957192 -0.0250917 0)
(0.9604 -0.0237185 0)
(0.963802 -0.0222066 0)
(0.966943 -0.0205135 0)
(0.969283 -0.018615 0)
(0.943224 -0.048868 0)
(0.942454 -0.047187 0)
(0.941689 -0.0454604 0)
(0.940938 -0.0436909 0)
(0.940199 -0.041882 0)
(0.939471 -0.0400356 0)
(0.938741 -0.0381527 0)
(0.937989 -0.0362334 0)
(0.937177 -0.0342769 0)
(0.93624 -0.0322807 0)
(0.935084 -0.0302417 0)
(0.933581 -0.0281574 0)
(0.931574 -0.026029 0)
(0.92891 -0.023866 0)
(0.925486 -0.0216916 0)
(0.921327 -0.0195454 0)
(0.916661 -0.017482 0)
(0.911964 -0.0155607 0)
(0.907924 -0.0138281 0)
(0.930408 -0.0588995 0)
(0.929093 -0.0573641 0)
(0.927857 -0.0557859 0)
(0.926692 -0.0541728 0)
(0.925595 -0.0525255 0)
(0.924567 -0.0508457 0)
(0.923617 -0.0491351 0)
(0.922758 -0.0473958 0)
(0.922019 -0.0456306 0)
(0.921446 -0.0438432 0)
(0.921118 -0.0420389 0)
(0.921151 -0.0402239 0)
(0.921699 -0.038403 0)
(0.922938 -0.0365759 0)
(0.925019 -0.0347296 0)
(0.927989 -0.0328319 0)
(0.93169 -0.0308273 0)
(0.935691 -0.0286429 0)
(0.939292 -0.0262078 0)
(0.918031 -0.0697234 0)
(0.916585 -0.0674167 0)
(0.915174 -0.0650336 0)
(0.913808 -0.0625781 0)
(0.912488 -0.0600534 0)
(0.911215 -0.0574606 0)
(0.909982 -0.054801 0)
(0.908776 -0.0520759 0)
(0.907577 -0.0492863 0)
(0.906344 -0.046433 0)
(0.905013 -0.0435157 0)
(0.903477 -0.0405328 0)
(0.901577 -0.0374827 0)
(0.899104 -0.0343675 0)
(0.895825 -0.0311995 0)
(0.891555 -0.0280104 0)
(0.886294 -0.0248599 0)
(0.880365 -0.0218331 0)
(0.874517 -0.0190233 0)
(0.90361 -0.0817089 0)
(0.901456 -0.0794466 0)
(0.899406 -0.0771041 0)
(0.89745 -0.0746934 0)
(0.895584 -0.0722204 0)
(0.893809 -0.0696918 0)
(0.892128 -0.0671147 0)
(0.89055 -0.0644966 0)
(0.889091 -0.0618451 0)
(0.88778 -0.0591678 0)
(0.886668 -0.0564731 0)
(0.885842 -0.0537707 0)
(0.88544 -0.0510711 0)
(0.88566 -0.0483842 0)
(0.886748 -0.0457127 0)
(0.888936 -0.0430415 0)
(0.892312 -0.0403232 0)
(0.896646 -0.0374684 0)
(0.901248 -0.0343572 0)
(0.888642 -0.0964662 0)
(0.886191 -0.0933029 0)
(0.883815 -0.0900204 0)
(0.881529 -0.0866269 0)
(0.879345 -0.083125 0)
(0.877268 -0.0795152 0)
(0.8753 -0.0757981 0)
(0.873436 -0.0719749 0)
(0.871665 -0.0680474 0)
(0.869968 -0.0640182 0)
(0.868303 -0.05989 0)
(0.866602 -0.0556658 0)
(0.864743 -0.0513478 0)
(0.862533 -0.0469383 0)
(0.859691 -0.0424446 0)
(0.855876 -0.037889 0)
(0.850797 -0.0333259 0)
(0.844437 -0.0288563 0)
(0.837338 -0.024624 0)
(0.872268 -0.111255 0)
(0.868917 -0.107906 0)
(0.865725 -0.104393 0)
(0.862687 -0.100739 0)
(0.859799 -0.096962 0)
(0.857063 -0.0930828 0)
(0.854484 -0.0891227 0)
(0.852069 -0.0851043 0)
(0.84983 -0.0810505 0)
(0.847787 -0.0769843 0)
(0.845974 -0.0729284 0)
(0.844447 -0.0689052 0)
(0.843306 -0.0649368 0)
(0.842714 -0.061045 0)
(0.842924 -0.0572475 0)
(0.844267 -0.05355 0)
(0.84707 -0.0499248 0)
(0.851433 -0.0462838 0)
(0.856902 -0.0424592 0)
(0.854264 -0.130304 0)
(0.85028 -0.125849 0)
(0.846457 -0.121203 0)
(0.842822 -0.116381 0)
(0.839402 -0.111395 0)
(0.836216 -0.10625 0)
(0.833278 -0.100953 0)
(0.830595 -0.0955139 0)
(0.828167 -0.0899396 0)
(0.825988 -0.0842385 0)
(0.824033 -0.0784182 0)
(0.822257 -0.0724856 0)
(0.820574 -0.0664465 0)
(0.818831 -0.0603054 0)
(0.816765 -0.0540677 0)
(0.813971 -0.0477464 0)
(0.809928 -0.0413844 0)
(0.804174 -0.0350849 0)
(0.796733 -0.0290393 0)
(0.835139 -0.149372 0)
(0.829926 -0.144392 0)
(0.825004 -0.139058 0)
(0.820386 -0.133436 0)
(0.816083 -0.12756 0)
(0.812105 -0.121476 0)
(0.808465 -0.115233 0)
(0.805172 -0.108879 0)
(0.802236 -0.102469 0)
(0.799664 -0.0960564 0)
(0.797472 -0.089698 0)
(0.795686 -0.083451 0)
(0.794357 -0.077373 0)
(0.793589 -0.0715205 0)
(0.793574 -0.0659461 0)
(0.79464 -0.0606948 0)
(0.797253 -0.0557796 0)
(0.801872 -0.051149 0)
(0.808548 -0.0466227 0)
(0.813543 -0.173756 0)
(0.80708 -0.167245 0)
(0.800958 -0.160376 0)
(0.795235 -0.153152 0)
(0.789957 -0.145612 0)
(0.785176 -0.13779 0)
(0.780924 -0.129721 0)
(0.777227 -0.121451 0)
(0.7741 -0.113021 0)
(0.771547 -0.104473 0)
(0.769558 -0.095844 0)
(0.768101 -0.0871653 0)
(0.767111 -0.0784602 0)
(0.766465 -0.0697446 0)
(0.765942 -0.0610293 0)
(0.765149 -0.0523184 0)
(0.763444 -0.0436459 0)
(0.759979 -0.0351022 0)
(0.753951 -0.0268936 0)
(0.790723 -0.199395 0)
(0.782263 -0.191961 0)
(0.774356 -0.183749 0)
(0.767038 -0.174917 0)
(0.760393 -0.165541 0)
(0.754453 -0.15571 0)
(0.749272 -0.145527 0)
(0.744875 -0.135091 0)
(0.741287 -0.124514 0)
(0.73851 -0.113915 0)
(0.736541 -0.103417 0)
(0.735369 -0.0931523 0)
(0.73499 -0.0832609 0)
(0.735427 -0.0738876 0)
(0.736771 -0.0651747 0)
(0.739249 -0.0572731 0)
(0.743335 -0.0502779 0)
(0.749678 -0.0442337 0)
(0.759045 -0.039059 0)
(0.764972 -0.231742 0)
(0.754176 -0.222113 0)
(0.743975 -0.211658 0)
(0.734609 -0.200399 0)
(0.72613 -0.188387 0)
(0.718688 -0.175748 0)
(0.712347 -0.162586 0)
(0.707184 -0.149042 0)
(0.703234 -0.135255 0)
(0.700526 -0.121371 0)
(0.699058 -0.107527 0)
(0.698804 -0.0938479 0)
(0.699703 -0.0804376 0)
(0.701642 -0.0673706 0)
(0.704417 -0.0547021 0)
(0.707663 -0.0424152 0)
(0.71064 -0.0305502 0)
(0.712355 -0.0191739 0)
(0.71102 -0.00840252 0)
(0.738242 -0.267338 0)
(0.723742 -0.256279 0)
(0.710392 -0.243668 0)
(0.698077 -0.229625 0)
(0.687128 -0.214435 0)
(0.67762 -0.198231 0)
(0.669715 -0.181248 0)
(0.663479 -0.163699 0)
(0.658992 -0.145818 0)
(0.656268 -0.127844 0)
(0.655307 -0.110027 0)
(0.656067 -0.09263 0)
(0.658486 -0.0759305 0)
(0.662484 -0.0602337 0)
(0.668011 -0.0458386 0)
(0.675076 -0.0331635 0)
(0.68416 -0.0224698 0)
(0.695674 -0.0140262 0)
(0.711151 -0.00818196 0)
(0.708121 -0.311636 0)
(0.689697 -0.297841 0)
(0.67201 -0.281837 0)
(0.656024 -0.264153 0)
(0.641775 -0.244727 0)
(0.629604 -0.223924 0)
(0.619633 -0.20201 0)
(0.612045 -0.179299 0)
(0.606878 -0.156112 0)
(0.604204 -0.132777 0)
(0.60402 -0.109614 0)
(0.606301 -0.0869417 0)
(0.610977 -0.065065 0)
(0.61793 -0.0442339 0)
(0.626935 -0.0247164 0)
(0.637751 -0.00647247 0)
(0.649222 0.0103212 0)
(0.660721 0.025672 0)
(0.6694 0.0399055 0)
(0.678674 -0.36206 0)
(0.65311 -0.345655 0)
(0.629981 -0.32654 0)
(0.608845 -0.304283 0)
(0.590371 -0.27969 0)
(0.57474 -0.253148 0)
(0.562264 -0.225088 0)
(0.552955 -0.195986 0)
(0.546987 -0.166265 0)
(0.54434 -0.136339 0)
(0.545044 -0.106629 0)
(0.549069 -0.0775583 0)
(0.556357 -0.0495775 0)
(0.566803 -0.0232347 0)
(0.580321 0.00102295 0)
(0.596421 0.0221616 0)
(0.616136 0.0397391 0)
(0.638582 0.0527506 0)
(0.666405 0.0594481 0)
(0.644396 -0.423076 0)
(0.612269 -0.403743 0)
(0.581829 -0.379229 0)
(0.554582 -0.351084 0)
(0.531011 -0.319853 0)
(0.511567 -0.286051 0)
(0.496147 -0.250527 0)