/*--------------------------------*- C++ -*----------------------------------*\
  =========                 |
  \\      /  F ield         | OpenFOAM: The Open Source CFD Toolbox
   \\    /   O peration     | Website:  https://openfoam.org
    \\  /    A nd           | Version:  10
     \\/     M anipulation  |
\*---------------------------------------------------------------------------*/
FoamFile
{
    format      ascii;
    class       volVectorField;
    location    "0";
    object      U;
}
// * * * * * * * * * * * * * * * * * * * * * * * * * * * * * * * * * * * * * //

dimensions      [0 1 -1 0 0 0 0];

internalField   nonuniform List<vector> 
18483
(
(1 -0.000228592 0)
(1 -0.000810145 0)
(1 -0.00127202 0)
(1 -0.00175049 0)
(1 -0.00218053 0)
(1.00001 -0.0025694 0)
(1.00001 -0.00289973 0)
(1.00001 -0.00316156 0)
(1.00001 -0.00334753 0)
(1.00001 -0.00345533 0)
(1.00002 -0.00348688 0)
(1.00003 -0.0034526 0)
(1.00004 -0.00336582 0)
(1.00006 -0.00325679 0)
(1.00007 -0.00316414 0)
(1.00007 -0.00311085 0)
(1.00002 -0.00306946 0)
(0.999747 -0.002969 0)
(0.998771 -0.00276813 0)
(0.996515 -0.00250081 0)
(0.993252 -0.00230853 0)
(0.99071 -0.00230553 0)
(0.990428 -0.002389 0)
(0.991987 -0.00238523 0)
(0.993991 -0.00226881 0)
(0.995627 -0.00209732 0)
(0.996753 -0.00191622 0)
(0.997479 -0.00174893 0)
(0.997934 -0.00160401 0)
(1.00069 -0.00067829 0)
(1.0007 -0.00238917 0)
(1.00075 -0.00375298 0)
(1.00077 -0.00517957 0)
(1.00078 -0.00646739 0)
(1.00076 -0.00764503 0)
(1.0007 -0.00865794 0)
(1.0006 -0.0094764 0)
(1.00045 -0.0100756 0)
(1.00026 -0.0104491 0)
(1.00003 -0.0106091 0)
(0.999782 -0.0105868 0)
(0.999532 -0.0104313 0)
(0.999301 -0.0101317 0)
(0.99909 -0.00963639 0)
(0.998861 -0.00891232 0)
(0.998572 -0.00801195 0)
(0.998382 -0.00709865 0)
(0.998987 -0.00631562 0)
(1.00152 -0.00570146 0)
(1.00597 -0.005082 0)
(1.00976 -0.00424524 0)
(1.01008 -0.00335883 0)
(1.00746 -0.00274855 0)
(1.00431 -0.00243878 0)
(1.00191 -0.00228319 0)
(1.00038 -0.00218218 0)
(0.999439 -0.00209037 0)
(0.998873 -0.00199326 0)
(1.00204 -0.00111152 0)
(1.00209 -0.0038972 0)
(1.00222 -0.00613924 0)
(1.00231 -0.00851765 0)
(1.00238 -0.010694 0)
(1.00235 -0.0127312 0)
(1.00221 -0.0145347 0)
(1.00195 -0.0160564 0)
(1.00155 -0.0172499 0)
(1.00105 -0.0180955 0)
(1.00046 -0.0185974 0)
(0.999835 -0.0187697 0)
(0.999245 -0.0186412 0)
(0.998732 -0.0182752 0)
(0.998269 -0.0178016 0)
(0.997804 -0.017431 0)
(0.997295 -0.0172679 0)
(0.996548 -0.0171787 0)
(0.994815 -0.0169381 0)
(0.99091 -0.0164012 0)
(0.984994 -0.0156365 0)
(0.980259 -0.0149022 0)
(0.980076 -0.0142297 0)
(0.983503 -0.0133959 0)
(0.987295 -0.0124017 0)
(0.989935 -0.0114246 0)
(0.991501 -0.0105604 0)
(0.992377 -0.00983056 0)
(0.992854 -0.00922815 0)
(1.00373 -0.00150954 0)
(1.00384 -0.00527881 0)
(1.00408 -0.00834712 0)
(1.0043 -0.0116505 0)
(1.00445 -0.0147278 0)
(1.00447 -0.0176825 0)
(1.00429 -0.0203814 0)
(1.00388 -0.0227548 0)
(1.00324 -0.0247182 0)
(1.00239 -0.0262162 0)
(1.00139 -0.0272146 0)
(1.00029 -0.0277061 0)
(0.99914 -0.0277253 0)
(0.99798 -0.0273703 0)
(0.996829 -0.0267355 0)
(0.995719 -0.0257272 0)
(0.994691 -0.0241907 0)
(0.993862 -0.0222424 0)
(0.993898 -0.0202574 0)
(0.996217 -0.0185944 0)
(1.00114 -0.0173891 0)
(1.00534 -0.0164323 0)
(1.00468 -0.0155612 0)
(1.00004 -0.0149422 0)
(0.995321 -0.0145883 0)
(0.992241 -0.014311 0)
(0.990497 -0.0140179 0)
(0.989527 -0.0136979 0)
(0.988973 -0.0133602 0)
(1.00553 -0.00185162 0)
(1.00574 -0.00646574 0)
(1.00612 -0.0102648 0)
(1.0065 -0.0144127 0)
(1.00681 -0.0183487 0)
(1.00692 -0.0222204 0)
(1.00677 -0.0258605 0)
(1.00628 -0.0291788 0)
(1.00542 -0.0320496 0)
(1.00422 -0.0343848 0)
(1.00271 -0.0361287 0)
(1.00095 -0.037279 0)
(0.99904 -0.0378887 0)
(0.997067 -0.0380353 0)
(0.995149 -0.0378105 0)
(0.993349 -0.0373705 0)
(0.991619 -0.037002 0)
(0.989763 -0.0368783 0)
(0.987141 -0.0367861 0)
(0.982497 -0.0363025 0)
(0.97556 -0.0351342 0)
(0.969664 -0.0334903 0)
(0.969273 -0.0318082 0)
(0.973475 -0.0301061 0)
(0.977716 -0.0283277 0)
(0.980135 -0.0266602 0)
(0.981264 -0.0252046 0)
(0.981729 -0.0239621 0)
(0.981871 -0.0229177 0)
(1.00741 -0.00213252 0)
(1.00773 -0.00743754 0)
(1.00829 -0.0118514 0)
(1.00888 -0.0167313 0)
(1.00942 -0.0214412 0)
(1.00973 -0.0261775 0)
(1.0097 -0.0307479 0)
(1.00922 -0.0350497 0)
(1.00823 -0.0389227 0)
(1.00672 -0.042242 0)
(1.00477 -0.0449117 0)
(1.00246 -0.0468744 0)
(0.999956 -0.0481055 0)
(0.997409 -0.0485857 0)
(0.994932 -0.0483368 0)
(0.992574 -0.0473861 0)
(0.990367 -0.0456925 0)
(0.988424 -0.043256 0)
(0.987223 -0.0403703 0)
(0.987956 -0.0376949 0)
(0.991371 -0.0358677 0)
(0.994767 -0.0349059 0)
(0.99342 -0.0341838 0)
(0.987447 -0.0334416 0)
(0.981531 -0.0328528 0)
(0.977891 -0.0323101 0)
(0.975848 -0.0317143 0)
(0.974634 -0.0310896 0)
(0.97386 -0.0304554 0)
(1.00934 -0.00235966 0)
(1.00978 -0.00821752 0)
(1.01055 -0.0131342 0)
(1.01142 -0.0186279 0)
(1.01226 -0.0240074 0)
(1.01286 -0.0295236 0)
(1.01305 -0.0349692 0)
(1.0127 -0.0402375 0)
(1.0117 -0.0451362 0)
(1.01002 -0.0494931 0)
(1.00772 -0.0531508 0)
(1.00491 -0.0559892 0)
(1.00171 -0.0579539 0)
(0.998247 -0.05906 0)
(0.994607 -0.0594197 0)
(0.990864 -0.0592537 0)
(0.987099 -0.0589113 0)
(0.983359 -0.0587148 0)
(0.97944 -0.0586671 0)
(0.974472 -0.058349 0)
(0.967626 -0.0571894 0)
(0.960854 -0.0550135 0)
(0.95865 -0.0524487 0)
(0.961533 -0.0500693 0)
(0.964912 -0.0477121 0)
(0.96635 -0.0454391 0)
(0.966603 -0.0434371 0)
(0.966414 -0.0417033 0)
(0.966069 -0.0402261 0)
(1.01127 -0.0025452 0)
(1.01186 -0.00884693 0)
(1.01286 -0.0141714 0)
(1.01402 -0.0201712 0)
(1.01521 -0.0261144 0)
(1.01616 -0.0323102 0)
(1.01668 -0.038547 0)
(1.01656 -0.0447243 0)
(1.01567 -0.0506274 0)
(1.01392 -0.0560509 0)
(1.01132 -0.060796 0)
(1.00795 -0.0647073 0)
(1.00395 -0.0677048 0)
(0.999519 -0.0697646 0)
(0.994869 -0.0708889 0)
(0.990232 -0.0710434 0)
(0.985845 -0.0701357 0)
(0.981938 -0.0680644 0)
(0.978838 -0.0649697 0)
(0.977328 -0.0614502 0)
(0.978342 -0.0583534 0)
(0.980519 -0.0563401 0)
(0.979259 -0.0551247 0)
(0.972928 -0.0539025 0)
(0.965898 -0.0527635 0)
(0.961399 -0.0518207 0)
(0.958738 -0.0508471 0)
(0.956964 -0.0498526 0)
(0.9557 -0.048866 0)
(1.01317 -0.00269962 0)
(1.0139 -0.0093626 0)
(1.01512 -0.0150184 0)
(1.0166 -0.0214312 0)
(1.01817 -0.0278384 0)
(1.01953 -0.0346101 0)
(1.02045 -0.041541 0)
(1.02066 -0.0485499 0)
(1.01999 -0.0554173 0)
(1.01828 -0.0619215 0)
(1.01551 -0.0678266 0)
(1.01174 -0.0729143 0)
(1.00715 -0.0770096 0)
(1.00199 -0.0799831 0)
(0.99646 -0.0817844 0)
(0.990727 -0.0824807 0)
(0.984875 -0.0823973 0)
(0.978983 -0.0821318 0)
(0.973064 -0.0820968 0)
(0.966674 -0.08205 0)
(0.958943 -0.0812833 0)
(0.950699 -0.0792109 0)
(0.945812 -0.0760223 0)
(0.946389 -0.0727499 0)
(0.948649 -0.069682 0)
(0.949118 -0.0666229 0)
(0.948391 -0.0638732 0)
(0.94742 -0.0614927 0)
(0.946443 -0.0594449 0)
(1.01498 -0.00282978 0)
(1.01584 -0.00978933 0)
(1.0173 -0.0157139 0)
(1.0191 -0.0224595 0)
(1.02106 -0.0292398 0)
(1.02287 -0.0364868 0)
(1.02424 -0.0440101 0)
(1.02489 -0.0517601 0)
(1.02455 -0.0595253 0)
(1.02305 -0.0670762 0)
(1.0203 -0.0741409 0)
(1.01633 -0.0804433 0)
(1.01127 -0.0857475 0)
(1.0053 -0.0898977 0)
(0.998612 -0.0928588 0)
(0.991466 -0.0946621 0)
(0.984206 -0.0952745 0)
(0.977338 -0.0944462 0)
(0.971397 -0.0919382 0)
(0.966931 -0.0881392 0)
(0.964758 -0.0840475 0)
(0.964666 -0.0807473 0)
(0.963006 -0.0787115 0)
(0.956465 -0.0770211 0)
(0.948074 -0.0751655 0)
(0.942216 -0.073557 0)
(0.938664 -0.0719981 0)
(0.936111 -0.0703955 0)
(0.934172 -0.0688358 0)
(1.01668 -0.00293968 0)
(1.01768 -0.0101423 0)
(1.01936 -0.0162829 0)
(1.02147 -0.0232922 0)
(1.02383 -0.0303642 0)
(1.0261 -0.037992 0)
(1.02798 -0.0460062 0)
(1.02913 -0.0543962 0)
(1.02926 -0.0629704 0)
(1.02811 -0.0715074 0)
(1.02553 -0.0797239 0)
(1.02148 -0.0873214 0)
(1.01602 -0.0940248 0)
(1.00934 -0.0996023 0)
(1.00171 -0.103875 0)
(0.9935 -0.106692 0)
(0.98506 -0.108015 0)
(0.976611 -0.108208 0)
(0.968169 -0.10811 0)
(0.959511 -0.108209 0)
(0.950072 -0.10793 0)
(0.939868 -0.10624 0)
(0.931578 -0.102713 0)
(0.928574 -0.0984746 0)
(0.928991 -0.0945565 0)
(0.928354 -0.0906685 0)
(0.926369 -0.0870064 0)
(0.924333 -0.0838259 0)
(0.922475 -0.0810441 0)
(1.01828 -0.00303194 0)
(1.01939 -0.0104317 0)
(1.02128 -0.0167435 0)
(1.02369 -0.0239571 0)
(1.02644 -0.0312494 0)
(1.02918 -0.0391723 0)
(1.03159 -0.0475804 0)
(1.0333 -0.0565079 0)
(1.03397 -0.0657961 0)
(1.03329 -0.075252 0)
(1.03103 -0.0846017 0)
(1.02708 -0.0935319 0)
(1.02148 -0.101708 0)
(1.01438 -0.108792 0)
(1.00605 -0.114511 0)
(0.996746 -0.118722 0)
(0.986781 -0.12144 0)
(0.976613 -0.122641 0)
(0.966964 -0.121956 0)
(0.958611 -0.119064 0)
(0.95234 -0.114586 0)
(0.948736 -0.110109 0)
(0.945662 -0.107034 0)
(0.938744 -0.104805 0)
(0.92864 -0.102169 0)
(0.920468 -0.0995765 0)
(0.915361 -0.0971797 0)
(0.911574 -0.0946844 0)
(0.90856 -0.0922593 0)
(1.01975 -0.00310852 0)
(1.02098 -0.0106653 0)
(1.02306 -0.01711 0)
(1.02576 -0.0244778 0)
(1.02887 -0.0319293 0)
(1.03207 -0.0400719 0)
(1.03501 -0.0487858 0)
(1.03731 -0.0581533 0)
(1.0386 -0.0680579 0)
(1.03849 -0.0783479 0)
(1.03672 -0.0887679 0)
(1.03311 -0.0989964 0)
(1.02762 -0.108664 0)
(1.02031 -0.117393 0)
(1.01133 -0.124865 0)
(1.00096 -0.130844 0)
(0.989667 -0.135129 0)
(0.978011 -0.137573 0)
(0.966354 -0.138532 0)
(0.954554 -0.139039 0)
(0.942275 -0.139479 0)
(0.929319 -0.138728 0)
(0.91704 -0.135428 0)
(0.909099 -0.130256 0)
(0.90638 -0.125169 0)
(0.904308 -0.120324 0)
(0.90069 -0.115491 0)
(0.897063 -0.111219 0)
(0.893913 -0.107452 0)
(1.02111 -0.00317121 0)
(1.02244 -0.0108502 0)
(1.0247 -0.0173953 0)
(1.02765 -0.0248754 0)
(1.03112 -0.0324349 0)
(1.03476 -0.0407329 0)
(1.03823 -0.0496748 0)
(1.04114 -0.0593905 0)
(1.04308 -0.0698108 0)
(1.04366 -0.0808314 0)
(1.04252 -0.092229 0)
(1.03943 -0.103701 0)
(1.03423 -0.114882 0)
(1.0269 -0.125375 0)
(1.01755 -0.134769 0)
(1.00647 -0.142678 0)
(0.994099 -0.148818 0)
(0.980905 -0.15304 0)
(0.967409 -0.15517 0)
(0.954457 -0.154739 0)
(0.943205 -0.151498 0)
(0.934702 -0.146563 0)
(0.928345 -0.142274 0)
(0.920133 -0.139493 0)
(0.907966 -0.136373 0)
(0.896236 -0.132598 0)
(0.88839 -0.129064 0)
(0.882709 -0.125401 0)
(0.878041 -0.121729 0)
(1.02235 -0.00322179 0)
(1.02377 -0.0109931 0)
(1.0262 -0.0176114 0)
(1.02938 -0.0251696 0)
(1.03318 -0.0327951 0)
(1.03723 -0.0411952 0)
(1.04122 -0.0502974 0)
(1.04474 -0.0602766 0)
(1.04737 -0.071113 0)
(1.04868 -0.0827557 0)
(1.04828 -0.0950298 0)
(1.04585 -0.107671 0)
(1.04115 -0.120331 0)
(1.03409 -0.132587 0)
(1.02473 -0.143964 0)
(1.01322 -0.154003 0)
(0.999918 -0.162369 0)
(0.985314 -0.168754 0)
(0.969981 -0.172913 0)
(0.95426 -0.175325 0)
(0.938094 -0.177086 0)
(0.921339 -0.178083 0)
(0.904311 -0.17639 0)
(0.889931 -0.171045 0)
(0.881778 -0.164459 0)
(0.877199 -0.158383 0)
(0.87147 -0.152119 0)
(0.865374 -0.146232 0)
(0.86023 -0.141052 0)
(1.02349 -0.00326211 0)
(1.02498 -0.0111007 0)
(1.02756 -0.0177702 0)
(1.03096 -0.025379 0)
(1.03505 -0.0330371 0)
(1.0395 -0.0414958 0)
(1.04397 -0.0507007 0)
(1.04808 -0.0608683 0)
(1.0514 -0.0720289 0)
(1.05349 -0.0841888 0)
(1.05389 -0.097229 0)
(1.05224 -0.110931 0)
(1.04826 -0.12497 0)
(1.04175 -0.138931 0)
(1.03264 -0.152334 0)
(1.02098 -0.164679 0)
(1.00705 -0.175522 0)
(0.991365 -0.184432 0)
(0.974416 -0.190977 0)
(0.956857 -0.194699 0)
(0.93997 -0.1949 0)
(0.925232 -0.191483 0)
(0.913261 -0.186598 0)
(0.901914 -0.183169 0)
(0.887196 -0.180196 0)
(0.870617 -0.175514 0)
(0.857882 -0.170472 0)
(0.849046 -0.165414 0)
(0.841762 -0.160028 0)
(1.02453 -0.00329392 0)
(1.02609 -0.0111793 0)
(1.0288 -0.0178824 0)
(1.03239 -0.0255203 0)
(1.03675 -0.033185 0)
(1.04155 -0.0416681 0)
(1.04648 -0.0509284 0)
(1.05116 -0.06122 0)
(1.05516 -0.0726227 0)
(1.05803 -0.0851984 0)
(1.05929 -0.0988847 0)
(1.05854 -0.113515 0)
(1.05542 -0.128808 0)
(1.04966 -0.144386 0)
(1.04107 -0.159791 0)
(1.02961 -0.174478 0)
(1.0155 -0.187919 0)
(0.999111 -0.199613 0)
(0.980845 -0.209014 0)
(0.961169 -0.215828 0)
(0.940509 -0.220783 0)
(0.918892 -0.224817 0)
(0.896193 -0.226621 0)
(0.874011 -0.223289 0)
(0.857276 -0.215769 0)
(0.847494 -0.208086 0)
(0.83879 -0.20039 0)
(0.828959 -0.192274 0)
(0.820477 -0.184969 0)
(1.02548 -0.00331873 0)
(1.0271 -0.0112344 0)
(1.02993 -0.0179574 0)
(1.03369 -0.0256077 0)
(1.03829 -0.0332597 0)
(1.04342 -0.041741 0)
(1.04877 -0.0510185 0)
(1.05398 -0.0613807 0)
(1.05864 -0.0729531 0)
(1.06228 -0.0858488 0)
(1.06443 -0.100062 0)
(1.06464 -0.115487 0)
(1.06249 -0.131897 0)
(1.05764 -0.148961 0)
(1.04984 -0.16625 0)
(1.03895 -0.18322 0)
(1.02503 -0.199317 0)
(1.00833 -0.214009 0)
(0.989154 -0.226682 0)
(0.967949 -0.236639 0)
(0.945733 -0.242987 0)
(0.924155 -0.244501 0)
(0.904527 -0.241476 0)
(0.887087 -0.237749 0)
(0.868537 -0.235671 0)
(0.846161 -0.231672 0)
(0.825327 -0.225134 0)
(0.810593 -0.218424 0)
(0.799011 -0.210966 0)
(1.02635 -0.00333784 0)
(1.02802 -0.0112709 0)
(1.03096 -0.0180034 0)
(1.03487 -0.0256534 0)
(1.0397 -0.0332786 0)
(1.04511 -0.0417388 0)
(1.05084 -0.0510035 0)
(1.05656 -0.0613925 0)
(1.06184 -0.0730723 0)
(1.06624 -0.0862026 0)
(1.06926 -0.100834 0)
(1.07045 -0.116923 0)
(1.06934 -0.134299 0)
(1.06554 -0.152682 0)
(1.05874 -0.17169 0)
(1.0487 -0.190823 0)
(1.03534 -0.209535 0)
(1.0188 -0.22727 0)
(0.999262 -0.243363 0)
(0.977003 -0.257058 0)
(0.952444 -0.268057 0)
(0.925775 -0.277255 0)
(0.896831 -0.284979 0)
(0.866225 -0.287917 0)
(0.83784 -0.282748 0)
(0.817699 -0.27361 0)
(0.803556 -0.264737 0)
(0.788451 -0.254486 0)
(0.774061 -0.244142 0)
(1.02714 -0.00335234 0)
(1.02886 -0.0112927 0)
(1.03189 -0.018027 0)
(1.03593 -0.0256672 0)
(1.04096 -0.0332563 0)
(1.04664 -0.0416813 0)
(1.05272 -0.0509102 0)
(1.0589 -0.0612916 0)
(1.06477 -0.0730272 0)
(1.06988 -0.0863196 0)
(1.07376 -0.101272 0)
(1.07592 -0.1179 0)
(1.07589 -0.13609 0)
(1.07323 -0.155615 0)
(1.06757 -0.176155 0)
(1.0586 -0.197272 0)
(1.04615 -0.21845 0)
(1.03023 -0.239147 0)
(1.01088 -0.258751 0)
(0.988187 -0.276518 0)
(0.962564 -0.291469 0)
(0.93506 -0.301886 0)
(0.907254 -0.305717 0)
(0.880777 -0.304447 0)
(0.855706 -0.304059 0)
(0.827238 -0.303893 0)
(0.795327 -0.298151 0)
(0.76927 -0.289722 0)
(0.750167 -0.280394 0)
(1.02786 -0.00336312 0)
(1.02962 -0.0113032 0)
(1.03274 -0.0180339 0)
(1.03689 -0.0256575 0)
(1.04211 -0.0332041 0)
(1.04801 -0.0415845 0)
(1.05442 -0.0507606 0)
(1.06102 -0.0611084 0)
(1.06743 -0.0728586 0)
(1.07322 -0.0862526 0)
(1.07792 -0.10144 0)
(1.08104 -0.118493 0)
(1.08209 -0.137352 0)
(1.08061 -0.157844 0)
(1.07618 -0.179717 0)
(1.06844 -0.202591 0)
(1.05719 -0.226011 0)
(1.04229 -0.249492 0)
(1.02365 -0.272489 0)
(1.00124 -0.294295 0)
(0.975076 -0.314025 0)
(0.945015 -0.331369 0)
(0.910727 -0.347535 0)
(0.872441 -0.361645 0)
(0.831699 -0.366533 0)
(0.795038 -0.359675 0)
(0.768891 -0.350025 0)
(0.746463 -0.339487 0)
(0.722576 -0.325793 0)
(1.02851 -0.00337097 0)
(1.03031 -0.0113052 0)
(1.0335 -0.0180286 0)
(1.03775 -0.0256308 0)
(1.04313 -0.0331316 0)
(1.04924 -0.0414612 0)
(1.05594 -0.050573 0)
(1.06292 -0.0608682 0)
(1.06983 -0.0726008 0)
(1.07626 -0.0860467 0)
(1.08173 -0.101396 0)
(1.08577 -0.118772 0)
(1.08789 -0.13817 0)
(1.08758 -0.159469 0)
(1.08443 -0.182471 0)
(1.07805 -0.206863 0)
(1.06817 -0.232262 0)
(1.05461 -0.258267 0)
(1.03714 -0.284426 0)
(1.01562 -0.310196 0)
(0.989847 -0.334831 0)
(0.959709 -0.356896 0)
(0.92609 -0.373532 0)
(0.890824 -0.381716 0)
(0.85585 -0.385024 0)
(0.819865 -0.391564 0)
(0.776678 -0.394156 0)
(0.731866 -0.386254 0)
(0.697772 -0.375667 0)
(1.02909 -0.00337652 0)
(1.03093 -0.011301 0)
(1.03419 -0.0180146 0)
(1.03853 -0.0255925 0)
(1.04405 -0.033046 0)
(1.05034 -0.0413216 0)
(1.0573 -0.0503615 0)
(1.06463 -0.0605913 0)
(1.072 -0.0722817 0)
(1.07901 -0.0857397 0)
(1.0852 -0.101192 0)
(1.09012 -0.118805 0)
(1.09326 -0.138627 0)
(1.09411 -0.160582 0)
(1.09224 -0.184522 0)
(1.08725 -0.210198 0)
(1.07886 -0.237296 0)
(1.06685 -0.26551 0)
(1.05096 -0.2945 0)
(1.0309 -0.323867 0)
(1.0064 -0.353025 0)
(0.976644 -0.380993 0)
(0.940519 -0.4078 0)
(0.897854 -0.435614 0)
(0.848523 -0.461101 0)
(0.793366 -0.470056 0)
(0.743763 -0.462436 0)
(0.706876 -0.453673 0)
(0.670544 -0.439809 0)
(1.02961 -0.00338028 0)
(1.03148 -0.0112923 0)
(1.0348 -0.0179947 0)
(1.03921 -0.0255467 0)
(1.04487 -0.0329531 0)
(1.05131 -0.0411734 0)
(1.05851 -0.0501376 0)
(1.06615 -0.0602937 0)
(1.07393 -0.0719242 0)
(1.08148 -0.0853635 0)
(1.08835 -0.100871 0)
(1.09408 -0.118651 0)
(1.09818 -0.138798 0)
(1.10015 -0.161276 0)
(1.09953 -0.185985 0)
(1.09594 -0.212726 0)
(1.08908 -0.241248 0)
(1.07877 -0.271331 0)
(1.06471 -0.302769 0)
(1.04656 -0.335302 0)
(1.02388 -0.36866 0)
(0.995834 -0.402309 0)
(0.961628 -0.434525 0)
(0.922183 -0.460891 0)
(0.878539 -0.476821 0)
(0.83225 -0.490338 0)
(0.779859 -0.510908 0)
(0.713333 -0.517242 0)
(0.648432 -0.505944 0)
(1.03008 -0.00338268 0)
(1.03197 -0.0112808 0)
(1.03534 -0.0179712 0)
(1.03983 -0.0254968 0)
(1.04559 -0.0328574 0)
(1.05217 -0.0410226 0)
(1.05958 -0.0499101 0)
(1.0675 -0.0599879 0)
(1.07566 -0.0715465 0)
(1.08369 -0.0849446 0)
(1.09118 -0.10047 0)
(1.09766 -0.118359 0)
(1.10267 -0.138747 0)
(1.1057 -0.161636 0)
(1.10628 -0.186962 0)
(1.10404 -0.214573 0)
(1.09872 -0.244265 0)
(1.09013 -0.275887 0)
(1.07805 -0.309361 0)
(1.06212 -0.34459 0)
(1.0418 -0.381459 0)
(1.01642 -0.4198 0)
(0.984386 -0.459083 0)
(0.943133 -0.500144 0)
(0.892171 -0.54775 0)
(0.829688 -0.595004 0)
(0.751876 -0.612724 0)
(0.677584 -0.606076 0)
(0.619913 -0.598598 0)
(1.03049 -0.00338402 0)
(1.03241 -0.0112675 0)
(1.03583 -0.0179457 0)
(1.04037 -0.0254451 0)
(1.04623 -0.0327621 0)
(1.05294 -0.0408737 0)
(1.06053 -0.0496856 0)
(1.06869 -0.0596839 0)
(1.07718 -0.0711634 0)
(1.08566 -0.0845046 0)
(1.0937 -0.100019 0)
(1.10088 -0.117973 0)
(1.10673 -0.138533 0)
(1.11074 -0.161739 0)
(1.11245 -0.187554 0)
(1.11152 -0.215863 0)
(1.10768 -0.246503 0)
(1.10078 -0.279366 0)
(1.0907 -0.31447 0)
(1.07718 -0.351894 0)
(1.05959 -0.391663 0)
(1.03717 -0.434008 0)
(1.0091 -0.479584 0)
(0.973787 -0.526936 0)
(0.92979 -0.568436 0)
(0.876549 -0.596774 0)
(0.816209 -0.633375 0)
(0.735564 -0.686365 0)
(0.621543 -0.694101 0)
(1.03086 -0.00338459 0)
(1.0328 -0.0112534 0)
(1.03625 -0.0179194 0)
(1.04085 -0.0253936 0)
(1.0468 -0.0326697 0)
(1.05361 -0.04073 0)
(1.06137 -0.0494692 0)
(1.06974 -0.0593886 0)
(1.07853 -0.0707858 0)
(1.0874 -0.08406 0)
(1.09595 -0.0995433 0)
(1.10376 -0.117526 0)
(1.11037 -0.138204 0)
(1.11529 -0.161648 0)
(1.11806 -0.187845 0)
(1.11833 -0.216706 0)
(1.1159 -0.2481 0)
(1.11064 -0.281952 0)
(1.10248 -0.318317 0)
(1.09136 -0.357431 0)
(1.07677 -0.399535 0)
(1.05774 -0.444882 0)
(1.03424 -0.494586 0)
(1.00446 -0.549737 0)
(0.960452 -0.611625 0)
(0.902222 -0.692397 0)
(0.830112 -0.788014 0)
(0.711149 -0.832868 0)
(0.564374 -0.825248 0)
(1.03119 -0.00338458 0)
(1.03314 -0.011239 0)
(1.03663 -0.0178933 0)
(1.04127 -0.0253437 0)
(1.0473 -0.0325818 0)
(1.0542 -0.0405938 0)
(1.0621 -0.0492642 0)
(1.07067 -0.0591075 0)
(1.07972 -0.0704222 0)
(1.08893 -0.0836239 0)
(1.09794 -0.0990615 0)
(1.10631 -0.117047 0)
(1.11361 -0.1378 0)
(1.11936 -0.161419 0)
(1.1231 -0.187912 0)
(1.12449 -0.217205 0)
(1.12336 -0.24919 0)
(1.11965 -0.283818 0)
(1.11331 -0.32115 0)
(1.10444 -0.361486 0)
(1.09288 -0.405328 0)
(1.07758 -0.453004 0)
(1.05825 -0.505661 0)
(1.03545 -0.567028 0)
(1.00587 -0.63789 0)
(0.962716 -0.702004 0)
(0.89973 -0.746569 0)
(0.8235 -0.844107 0)
(0.671909 -0.980834 0)
(1.03148 -0.00338416 0)
(1.03345 -0.011225 0)
(1.03696 -0.017868 0)
(1.04165 -0.0252962 0)
(1.04773 -0.0324995 0)
(1.05472 -0.0404666 0)
(1.06274 -0.049073 0)
(1.07148 -0.058844 0)
(1.08076 -0.0700782 0)
(1.09028 -0.0832053 0)
(1.09969 -0.098588 0)
(1.10857 -0.116557 0)
(1.1165 -0.137354 0)
(1.12299 -0.161097 0)
(1.12761 -0.187813 0)
(1.13002 -0.217441 0)
(1.13007 -0.249882 0)
(1.12779 -0.285106 0)
(1.12315 -0.323172 0)
(1.11632 -0.364356 0)
(1.10756 -0.409345 0)
(1.09613 -0.458755 0)
(1.0813 -0.513331 0)
(1.06533 -0.576823 0)
(1.04703 -0.653334 0)
(1.00758 -0.739153 0)
(0.948298 -0.867466 0)
(0.88221 -1.08338 0)
(0.631284 -1.15001 0)
(0.998218 -0.00148068 0)
(0.998403 -0.00136592 0)
(0.998513 -0.00124969 0)
(0.998549 -0.00113288 0)
(0.998502 -0.00101639 0)
(0.998356 -0.000900926 0)
(0.99809 -0.000787391 0)
(0.997674 -0.00067699 0)
(0.997075 -0.000571211 0)
(0.996264 -0.00047177 0)
(0.995219 -0.000380463 0)
(0.993934 -0.000298886 0)
(0.992427 -0.000228024 0)
(0.99075 -0.000167766 0)
(0.988985 -0.000116446 0)
(0.987248 -7.05345e-05 0)
(0.985671 -2.46513e-05 0)
(0.984392 2.80161e-05 0)
(0.983534 9.4871e-05 0)
(0.998529 -0.0018923 0)
(0.998305 -0.00178905 0)
(0.998168 -0.00168178 0)
(0.998116 -0.00157064 0)
(0.998156 -0.00145373 0)
(0.998307 -0.00132922 0)
(0.998596 -0.00119498 0)
(0.999057 -0.00104846 0)
(0.999729 -0.000886693 0)
(1.00064 -0.000706536 0)
(1.00182 -0.000505038 0)
(1.00326 -0.00028005 0)
(1.00493 -3.10421e-05 0)
(1.00674 0.000239981 0)
(1.00858 0.000527685 0)
(1.01029 0.00082302 0)
(1.01171 0.00111354 0)
(1.01268 0.00138464 0)
(1.01307 0.00162163 0)
(0.993103 -0.00872803 0)
(0.993224 -0.008271 0)
(0.993245 -0.00781484 0)
(0.993169 -0.00735916 0)
(0.992985 -0.00690515 0)
(0.992676 -0.00645353 0)
(0.992213 -0.00600554 0)
(0.991564 -0.00556326 0)
(0.990695 -0.0051296 0)
(0.989582 -0.00470826 0)
(0.988216 -0.00430351 0)
(0.986618 -0.00391959 0)
(0.984847 -0.00355988 0)
(0.983007 -0.00322575 0)
(0.981242 -0.00291548 0)
(0.979725 -0.0026234 0)
(0.978628 -0.00233985 0)
(0.978093 -0.00205202 0)
(0.978199 -0.00174585 0)
(0.988641 -0.0130231 0)
(0.988422 -0.0126849 0)
(0.98828 -0.0123352 0)
(0.988212 -0.0119774 0)
(0.98823 -0.0116112 0)
(0.988358 -0.0112367 0)
(0.988634 -0.0108534 0)
(0.989102 -0.0104605 0)
(0.989813 -0.0100558 0)
(0.990809 -0.00963623 0)
(0.992115 -0.00919714 0)
(0.993723 -0.00873295 0)
(0.995575 -0.00823772 0)
(0.997559 -0.00770647 0)
(0.999507 -0.0071369 0)
(1.00122 -0.0065311 0)
(1.00247 -0.00589675 0)
(1.0031 -0.00524705 0)
(1.003 -0.00459911 0)
(0.981857 -0.0220333 0)
(0.981759 -0.0212122 0)
(0.981587 -0.020383 0)
(0.981344 -0.0195456 0)
(0.981017 -0.0187022 0)
(0.980588 -0.0178542 0)
(0.980023 -0.0170036 0)
(0.979282 -0.0161532 0)
(0.978318 -0.0153074 0)
(0.97709 -0.0144722 0)
(0.97557 -0.0136557 0)
(0.973763 -0.0128684 0)
(0.971726 -0.0121219 0)
(0.969576 -0.0114276 0)
(0.967495 -0.0107941 0)
(0.965713 -0.0102245 0)
(0.964471 -0.00971342 0)
(0.963968 -0.00924603 0)
(0.96431 -0.00879927 0)
(0.973329 -0.0298386 0)
(0.972922 -0.0292289 0)
(0.972592 -0.0286036 0)
(0.972341 -0.0279687 0)
(0.972183 -0.0273253 0)
(0.972148 -0.0266748 0)
(0.972281 -0.0260189 0)
(0.972638 -0.0253582 0)
(0.973285 -0.0246915 0)
(0.974291 -0.0240151 0)
(0.975707 -0.0233212 0)
(0.97755 -0.0225974 0)
(0.979777 -0.0218263 0)
(0.982263 -0.020987 0)
(0.984796 -0.0200586 0)
(0.987092 -0.019025 0)
(0.988833 -0.0178804 0)
(0.989735 -0.0166344 0)
(0.989614 -0.0153128 0)
(0.965692 -0.0389618 0)
(0.965302 -0.0377768 0)
(0.96489 -0.0365695 0)
(0.964457 -0.0353401 0)
(0.963996 -0.0340907 0)
(0.963487 -0.0328216 0)
(0.962894 -0.0315326 0)
(0.962165 -0.0302238 0)
(0.961228 -0.0288959 0)
(0.960001 -0.0275518 0)
(0.958397 -0.0261982 0)
(0.956353 -0.0248471 0)
(0.953855 -0.0235174 0)
(0.950977 -0.0222345 0)
(0.947906 -0.021027 0)
(0.944946 -0.0199216 0)
(0.942481 -0.0189349 0)
(0.940907 -0.0180665 0)
(0.940519 -0.0172938 0)
(0.954745 -0.047914 0)
(0.953945 -0.0469736 0)
(0.953224 -0.0460046 0)
(0.95258 -0.0450137 0)
(0.952021 -0.0440014 0)
(0.95157 -0.0429695 0)
(0.951261 -0.0419208 0)
(0.95115 -0.0408586 0)
(0.951312 -0.0397863 0)
(0.951839 -0.038706 0)
(0.952833 -0.0376165 0)
(0.954384 -0.0365106 0)
(0.956532 -0.0353718 0)
(0.959227 -0.0341723 0)
(0.962292 -0.032874 0)
(0.965401 -0.0314334 0)
(0.968109 -0.0298122 0)
(0.969931 -0.0279904 0)
(0.970459 -0.0259782 0)
(0.945547 -0.0576821 0)
(0.944705 -0.0560216 0)
(0.943874 -0.0543243 0)
(0.943061 -0.0525913 0)
(0.942266 -0.0508248 0)
(0.941479 -0.0490245 0)
(0.940678 -0.0471884 0)
(0.93982 -0.0453135 0)
(0.938838 -0.0433951 0)
(0.937634 -0.0414278 0)
(0.936081 -0.0394076 0)
(0.934034 -0.037335 0)
(0.931364 -0.0352198 0)
(0.928007 -0.0330859 0)
(0.924031 -0.0309741 0)
(0.919693 -0.0289392 0)
(0.91546 -0.0270403 0)
(0.911953 -0.0253245 0)
(0.909805 -0.0238085 0)
(0.932636 -0.0673463 0)
(0.931296 -0.0658784 0)
(0.930036 -0.0643601 0)
(0.928849 -0.0627993 0)
(0.927735 -0.0611963 0)
(0.926701 -0.0595522 0)
(0.925762 -0.0578697 0)
(0.924948 -0.0561528 0)
(0.92431 -0.0544074 0)
(0.923929 -0.0526417 0)
(0.92392 -0.0508651 0)
(0.924428 -0.0490861 0)
(0.925607 -0.0473067 0)
(0.927571 -0.0455157 0)
(0.930326 -0.0436812 0)
(0.933687 -0.0417471 0)
(0.937229 -0.0396384 0)
(0.940316 -0.0372792 0)
(0.94223 -0.0346213 0)
(0.920831 -0.0786134 0)
(0.919312 -0.0762996 0)
(0.917827 -0.0739173 0)
(0.916386 -0.07147 0)
(0.914991 -0.0689605 0)
(0.913644 -0.0663895 0)
(0.912335 -0.0637571 0)
(0.911048 -0.0610628 0)
(0.909749 -0.0583049 0)
(0.908373 -0.0554791 0)
(0.906817 -0.052579 0)
(0.904929 -0.049597 0)
(0.90251 -0.0465282 0)
(0.899348 -0.043378 0)
(0.895286 -0.0401729 0)
(0.890338 -0.0369688 0)
(0.884803 -0.0338527 0)
(0.879337 -0.0309274 0)
(0.874882 -0.0282799 0)
(0.906123 -0.0899654 0)
(0.903957 -0.0877016 0)
(0.901888 -0.0853503 0)
(0.899908 -0.0829245 0)
(0.898014 -0.08043 0)
(0.89621 -0.0778732 0)
(0.894503 -0.0752611 0)
(0.892906 -0.0726009 0)
(0.891444 -0.0699007 0)
(0.890162 -0.0671704 0)
(0.889134 -0.0644226 0)
(0.888484 -0.0616732 0)
(0.88839 -0.0589398 0)
(0.889072 -0.0562355 0)
(0.890744 -0.0535578 0)
(0.8935 -0.0508727 0)
(0.897177 -0.0481015 0)
(0.901227 -0.0451239 0)
(0.904727 -0.0418095 0)
(0.891154 -0.104094 0)
(0.888633 -0.100872 0)
(0.88619 -0.0975343 0)
(0.883838 -0.0940903 0)
(0.881588 -0.0905426 0)
(0.879443 -0.086892 0)
(0.877405 -0.0831397 0)
(0.875468 -0.0792874 0)
(0.87362 -0.0753371 0)
(0.871833 -0.0712912 0)
(0.870051 -0.0671504 0)
(0.868176 -0.0629133 0)
(0.866042 -0.0585756 0)
(0.863406 -0.054133 0)
(0.859963 -0.0495915 0)
(0.855431 -0.0449838 0)
(0.849723 -0.0403905 0)
(0.843181 -0.0359475 0)
(0.836752 -0.0318229 0)
(0.874257 -0.118266 0)
(0.870889 -0.114814 0)
(0.867674 -0.111197 0)
(0.864607 -0.10744 0)
(0.861688 -0.103562 0)
(0.858921 -0.0995838 0)
(0.856314 -0.0955272 0)
(0.853878 -0.0914145 0)
(0.851629 -0.0872686 0)
(0.849592 -0.0831119 0)
(0.847809 -0.0789676 0)
(0.84635 -0.0748598 0)
(0.845339 -0.0708151 0)
(0.844976 -0.0668615 0)
(0.845543 -0.0630229 0)
(0.847359 -0.0593022 0)
(0.850632 -0.055653 0)
(0.855194 -0.0519489 0)
(0.860239 -0.0479811 0)
(0.855777 -0.136324 0)
(0.851736 -0.131742 0)
(0.847872 -0.126967 0)
(0.844206 -0.122019 0)
(0.840764 -0.116908 0)
(0.837562 -0.111643 0)
(0.834613 -0.106233 0)
(0.831923 -0.100687 0)
(0.82949 -0.0950166 0)
(0.827303 -0.0892308 0)
(0.825331 -0.0833386 0)
(0.823515 -0.077347 0)
(0.821745 -0.0712601 0)
(0.819829 -0.0650777 0)
(0.817454 -0.0587986 0)
(0.814183 -0.0524329 0)
(0.809541 -0.046033 0)
(0.803291 -0.039731 0)
(0.795895 -0.033762 0)
(0.835824 -0.154863 0)
(0.830615 -0.149644 0)
(0.825691 -0.144083 0)
(0.821079 -0.138248 0)
(0.816787 -0.132172 0)
(0.812828 -0.125905 0)
(0.809218 -0.119494 0)
(0.805967 -0.112988 0)
(0.803086 -0.106439 0)
(0.800584 -0.0999031 0)
(0.798477 -0.0934346 0)
(0.796795 -0.0870906 0)
(0.795597 -0.0809291 0)
(0.795001 -0.0750089 0)
(0.795232 -0.0693875 0)
(0.79665 -0.064115 0)
(0.799725 -0.0592029 0)
(0.804809 -0.0545774 0)
(0.811648 -0.0500028 0)
(0.813339 -0.17819 0)
(0.806855 -0.171442 0)
(0.800759 -0.164335 0)
(0.795078 -0.156872 0)
(0.789864 -0.149104 0)
(0.785167 -0.141063 0)
(0.781013 -0.132791 0)
(0.777429 -0.124335 0)
(0.774426 -0.115739 0)
(0.772007 -0.107048 0)
(0.770154 -0.0983002 0)
(0.768826 -0.0895283 0)
(0.767942 -0.0807569 0)
(0.767358 -0.072001 0)
(0.766811 -0.0632673 0)
(0.765862 -0.0545545 0)
(0.763828 -0.0458931 0)
(0.759896 -0.0373788 0)
(0.753539 -0.0292591 0)
(0.789305 -0.203305 0)
(0.780941 -0.195454 0)
(0.773113 -0.186849 0)
(0.765909 -0.177671 0)
(0.759399 -0.16798 0)
(0.753614 -0.157869 0)
(0.748611 -0.147441 0)
(0.744412 -0.136796 0)
(0.74104 -0.126046 0)
(0.738495 -0.115307 0)
(0.736769 -0.104705 0)
(0.73585 -0.0943694 0)
(0.735732 -0.084438 0)
(0.736438 -0.0750537 0)
(0.738073 -0.066358 0)
(0.740891 -0.0584998 0)
(0.7454 -0.0515745 0)
(0.752281 -0.0456285 0)
(0.762198 -0.0405308 0)
(0.762283 -0.234533 0)
(0.751558 -0.224482 0)
(0.741541 -0.213637 0)
(0.73238 -0.20199 0)
(0.724143 -0.189627 0)
(0.716977 -0.176673 0)
(0.710937 -0.163234 0)
(0.706098 -0.149457 0)
(0.70249 -0.135479 0)
(0.700138 -0.121444 0)
(0.699031 -0.107487 0)
(0.699135 -0.0937328 0)
(0.700373 -0.0802823 0)
(0.702615 -0.0672089 0)
(0.705625 -0.0545633 0)
(0.708996 -0.0423276 0)
(0.711943 -0.0305434 0)
(0.713414 -0.0192611 0)
(0.711608 -0.00862053 0)
(0.733875 -0.269439 0)
(0.719709 -0.257753 0)
(0.706643 -0.244548 0)
(0.694675 -0.230013 0)
(0.684116 -0.214397 0)
(0.675022 -0.197828 0)
(0.667559 -0.180546 0)
(0.661785 -0.162755 0)
(0.657772 -0.144688 0)
(0.65553 -0.126582 0)
(0.655051 -0.108686 0)
(0.656286 -0.0912627 0)
(0.659166 -0.0745878 0)
(0.663606 -0.0589668 0)
(0.669558 -0.0447011 0)
(0.677053 -0.0322053 0)
(0.686593 -0.02173 0)
(0.698638 -0.0135702 0)
(0.714862 -0.00803436 0)
(0.70218 -0.31243 0)
(0.684052 -0.297942 0)
(0.66686 -0.281356 0)
(0.651411 -0.263136 0)
(0.637719 -0.243241 0)
(0.626145 -0.222063 0)
(0.616785 -0.19984 0)
(0.609813 -0.176893 0)
(0.605271 -0.153534 0)
(0.603221 -0.130084 0)
(0.603655 -0.106858 0)
(0.606543 -0.084172 0)
(0.611808 -0.0623248 0)
(0.619318 -0.0415641 0)
(0.62883 -0.0221512 0)
(0.640052 -0.00403585 0)
(0.651778 0.0125896 0)
(0.663347 0.0277656 0)
(0.671642 0.0417966 0)
(0.670558 -0.361716 0)
(0.64578 -0.344421 0)
(0.623391 -0.324533 0)
(0.603003 -0.301644 0)
(0.585338 -0.276587 0)
(0.570505 -0.249657 0)
(0.558816 -0.22132 0)
(0.550293 -0.192014 0)
(0.545089 -0.162154 0)
(0.543192 -0.132147 0)
(0.544629 -0.102407 0)
(0.549369 -0.0733558 0)
(0.557353 -0.0454461 0)
(0.568467 -0.0192336 0)
(0.582618 0.00481927 0)
(0.599334 0.0256445 0)
(0.61969 0.0428242 0)
(0.642751 0.0552731 0)
(0.671503 0.0612412 0)
(0.634407 -0.420863 0)
(0.60323 -0.400616 0)
(0.573784 -0.375274 0)
(0.547671 -0.346593 0)
(0.525148 -0.31488 0)
(0.506714 -0.28079 0)
(0.492283 -0.245058 0)
(0.482135 -0.208182 0)
(0.476114 -0.170671 0)