/*--------------------------------*- C++ -*----------------------------------*\
  =========                 |
  \\      /  F ield         | OpenFOAM: The Open Source CFD Toolbox
   \\    /   O peration     | Website:  https://openfoam.org
    \\  /    A nd           | Version:  10
     \\/     M anipulation  |
\*---------------------------------------------------------------------------*/
FoamFile
{
    format      ascii;
    class       volVectorField;
    location    "0";
    object      U;
}
// * * * * * * * * * * * * * * * * * * * * * * * * * * * * * * * * * * * * * //

dimensions      [0 1 -1 0 0 0 0];

internalField   nonuniform List<vector> 
18483
(
(1 -0.00018821 0)
(1 -0.000681393 0)
(1 -0.00110949 0)
(1 -0.00159446 0)
(1.00001 -0.00208775 0)
(1.00001 -0.00259584 0)
(1.00001 -0.00309793 0)
(1.00001 -0.00357715 0)
(1.00001 -0.00401728 0)
(1.00001 -0.0044073 0)
(1.00001 -0.00474338 0)
(1.00001 -0.00503185 0)
(1.00001 -0.00528288 0)
(1.00003 -0.00553504 0)
(1.00005 -0.00582655 0)
(1.00007 -0.006179 0)
(0.999983 -0.00655295 0)
(0.999437 -0.00685307 0)
(0.997643 -0.00701433 0)
(0.994062 -0.0070126 0)
(0.989949 -0.00693841 0)
(0.988042 -0.00688021 0)
(0.989371 -0.00677343 0)
(0.992288 -0.00656632 0)
(0.994992 -0.00631185 0)
(0.996886 -0.00606712 0)
(0.998065 -0.00585451 0)
(0.99876 -0.00567848 0)
(0.999155 -0.00553541 0)
(1.00058 -0.000568135 0)
(1.00062 -0.00203048 0)
(1.00072 -0.00327627 0)
(1.00083 -0.00467243 0)
(1.00094 -0.00606124 0)
(1.00105 -0.00747014 0)
(1.00113 -0.00884112 0)
(1.00118 -0.0101303 0)
(1.00118 -0.0112888 0)
(1.00114 -0.0122783 0)
(1.00106 -0.0130693 0)
(1.00096 -0.0136575 0)
(1.00087 -0.014046 0)
(1.0008 -0.014172 0)
(1.00076 -0.0139615 0)
(1.00071 -0.0133632 0)
(1.00063 -0.0124591 0)
(1.00082 -0.0114789 0)
(1.00218 -0.01067 0)
(1.00556 -0.0102762 0)
(1.00978 -0.0102618 0)
(1.01155 -0.0103396 0)
(1.00938 -0.0104143 0)
(1.00543 -0.0105303 0)
(1.00207 -0.010637 0)
(0.99994 -0.0106802 0)
(0.998728 -0.010659 0)
(0.998065 -0.010589 0)
(0.997708 -0.0104888 0)
(1.00174 -0.00093715 0)
(1.00185 -0.00331525 0)
(1.00209 -0.0053162 0)
(1.00236 -0.00754206 0)
(1.00264 -0.00971956 0)
(1.00289 -0.0119088 0)
(1.00307 -0.0140174 0)
(1.00313 -0.0159841 0)
(1.00306 -0.0177351 0)
(1.00285 -0.0192186 0)
(1.00251 -0.0204031 0)
(1.00204 -0.0212703 0)
(1.00151 -0.0218378 0)
(1.00093 -0.0221642 0)
(1.00028 -0.022402 0)
(0.999508 -0.0227814 0)
(0.998618 -0.0233566 0)
(0.997469 -0.0239347 0)
(0.995542 -0.024224 0)
(0.992257 -0.0239586 0)
(0.988347 -0.0230961 0)
(0.986285 -0.0220036 0)
(0.987449 -0.0210246 0)
(0.990165 -0.0201282 0)
(0.992378 -0.0193004 0)
(0.993632 -0.0185908 0)
(0.994229 -0.0179988 0)
(0.994471 -0.0175103 0)
(0.994535 -0.0171092 0)
(1.00319 -0.00127475 0)
(1.00339 -0.00447657 0)
(1.00378 -0.00715603 0)
(1.00423 -0.0101313 0)
(1.0047 -0.0130204 0)
(1.00511 -0.0159236 0)
(1.00538 -0.0187213 0)
(1.00546 -0.0213456 0)
(1.0053 -0.0237057 0)
(1.00489 -0.0257311 0)
(1.00425 -0.0273714 0)
(1.00343 -0.0285849 0)
(1.00249 -0.0293751 0)
(1.00149 -0.0298045 0)
(1.00049 -0.0298891 0)
(0.999533 -0.0294785 0)
(0.99869 -0.0284446 0)
(0.998099 -0.0269663 0)
(0.998314 -0.0254484 0)
(1.00019 -0.0242742 0)
(1.00332 -0.0236646 0)
(1.00493 -0.0234338 0)
(1.00301 -0.0231876 0)
(0.999095 -0.0229231 0)
(0.995707 -0.0227104 0)
(0.993542 -0.0224802 0)
(0.992259 -0.0222175 0)
(0.991487 -0.0219327 0)
(0.991003 -0.0216384 0)
(1.00473 -0.00157019 0)
(1.00503 -0.00548587 0)
(1.00558 -0.00876135 0)
(1.00623 -0.012407 0)
(1.00691 -0.0159473 0)
(1.00751 -0.0195267 0)
(1.00792 -0.0230043 0)
(1.00806 -0.026307 0)
(1.00787 -0.0293198 0)
(1.00732 -0.0319413 0)
(1.00643 -0.0340911 0)
(1.00525 -0.035725 0)
(1.00382 -0.0368462 0)
(1.00221 -0.0374939 0)
(1.00051 -0.0377565 0)
(0.998728 -0.0378175 0)
(0.996838 -0.0379281 0)
(0.994766 -0.0381995 0)
(0.992241 -0.038407 0)
(0.988737 -0.0381502 0)
(0.98443 -0.037183 0)
(0.981307 -0.035653 0)
(0.981303 -0.0340896 0)
(0.983348 -0.0326849 0)
(0.98511 -0.0313317 0)
(0.985905 -0.0301053 0)
(0.986093 -0.0290449 0)
(0.985999 -0.0281384 0)
(0.985793 -0.0273717 0)
(1.00632 -0.001824 0)
(1.00672 -0.00634835 0)
(1.00745 -0.0101426 0)
(1.00832 -0.0143849 0)
(1.00925 -0.0185226 0)
(1.01008 -0.022746 0)
(1.01069 -0.0268972 0)
(1.01095 -0.0309025 0)
(1.01077 -0.0346285 0)
(1.0101 -0.0379627 0)
(1.00892 -0.0408156 0)
(1.00727 -0.0431371 0)
(1.00525 -0.0449056 0)
(1.00297 -0.0460946 0)
(1.00058 -0.0466932 0)
(0.9982 -0.0466798 0)
(0.99595 -0.0459425 0)
(0.993961 -0.0444309 0)
(0.992597 -0.04243 0)
(0.992571 -0.0404762 0)
(0.994059 -0.0390462 0)
(0.995174 -0.0382786 0)
(0.993431 -0.0377153 0)
(0.989365 -0.0370623 0)
(0.985553 -0.0364899 0)
(0.983036 -0.0359617 0)
(0.981445 -0.0354102 0)
(0.980373 -0.0348475 0)
(0.979599 -0.0342853 0)
(1.00796 -0.00204003 0)
(1.00848 -0.0070783 0)
(1.0094 -0.011321 0)
(1.01051 -0.0160904 0)
(1.01172 -0.0207711 0)
(1.01283 -0.0256022 0)
(1.01369 -0.0304155 0)
(1.01413 -0.0351481 0)
(1.01403 -0.0396614 0)
(1.01331 -0.0438355 0)
(1.01194 -0.0475493 0)
(1.00998 -0.0506891 0)
(1.00756 -0.0531562 0)
(1.00482 -0.0548799 0)
(1.00182 -0.0558485 0)
(0.998611 -0.0561851 0)
(0.995229 -0.0562581 0)
(0.991683 -0.0564133 0)
(0.987919 -0.0565986 0)
(0.983608 -0.0564433 0)
(0.978561 -0.0555425 0)
(0.973981 -0.053766 0)
(0.97208 -0.051651 0)
(0.972875 -0.0497209 0)
(0.973994 -0.0478438 0)
(0.974198 -0.046029 0)
(0.973809 -0.0444063 0)
(0.973203 -0.0429809 0)
(0.972545 -0.0417472 0)
(1.00963 -0.00222158 0)
(1.01028 -0.00768787 0)
(1.0114 -0.0123131 0)
(1.01277 -0.0175418 0)
(1.01429 -0.022708 0)
(1.01572 -0.028102 0)
(1.01689 -0.0335516 0)
(1.0176 -0.0390108 0)
(1.0177 -0.0443356 0)
(1.01707 -0.0493894 0)
(1.01569 -0.0540129 0)
(1.01357 -0.0580562 0)
(1.01077 -0.0614104 0)
(1.00738 -0.064035 0)
(1.00348 -0.0659493 0)
(0.999227 -0.0671598 0)
(0.994868 -0.0675594 0)
(0.99072 -0.0668803 0)
(0.987119 -0.0651023 0)
(0.98468 -0.062755 0)
(0.984035 -0.060581 0)
(0.984229 -0.059123 0)
(0.982528 -0.0581136 0)
(0.978052 -0.0569817 0)
(0.973157 -0.0558903 0)
(0.969634 -0.0549615 0)
(0.967233 -0.0540385 0)
(0.965444 -0.0531162 0)
(0.964038 -0.0522132 0)
(1.01128 -0.00237157 0)
(1.01205 -0.00818777 0)
(1.01338 -0.0131336 0)
(1.01503 -0.0187547 0)
(1.01687 -0.0243458 0)
(1.01866 -0.0302471 0)
(1.02019 -0.0362855 0)
(1.02125 -0.0424333 0)
(1.02165 -0.0485468 0)
(1.02124 -0.0544894 0)
(1.01992 -0.0600999 0)
(1.01765 -0.0652279 0)
(1.01447 -0.0697411 0)
(1.0105 -0.0735203 0)
(1.00592 -0.076443 0)
(1.00094 -0.0783806 0)
(0.9957 -0.0793932 0)
(0.990206 -0.0799177 0)
(0.984446 -0.0804123 0)
(0.9784 -0.0807548 0)
(0.971822 -0.0803673 0)
(0.965138 -0.0788272 0)
(0.960473 -0.0764947 0)
(0.959256 -0.0741794 0)
(0.959534 -0.0719152 0)
(0.959062 -0.0695447 0)
(0.95789 -0.0673275 0)
(0.956571 -0.0653475 0)
(0.955291 -0.063604 0)
(1.01287 -0.00249307 0)
(1.01376 -0.00858895 0)
(1.01529 -0.0137976 0)
(1.01722 -0.0197469 0)
(1.0194 -0.0257002 0)
(1.02156 -0.032045 0)
(1.0235 -0.0386098 0)
(1.02497 -0.0453901 0)
(1.02574 -0.0522559 0)
(1.02563 -0.0590904 0)
(1.02449 -0.065741 0)
(1.02226 -0.072036 0)
(1.01897 -0.0777756 0)
(1.01473 -0.0827555 0)
(1.00966 -0.086829 0)
(1.00387 -0.0899385 0)
(0.997449 -0.0920813 0)
(0.990697 -0.0930942 0)
(0.98422 -0.0926503 0)
(0.978849 -0.0908574 0)
(0.97548 -0.0885364 0)
(0.974024 -0.0866418 0)
(0.971951 -0.0853365 0)
(0.966746 -0.0838921 0)
(0.95991 -0.0822883 0)
(0.954468 -0.0809548 0)
(0.950711 -0.0796872 0)
(0.947824 -0.0783889 0)
(0.945504 -0.0771181 0)
(1.01437 -0.00258927 0)
(1.01538 -0.00890257 0)
(1.01711 -0.0143213 0)
(1.01931 -0.0205382 0)
(1.02183 -0.026792 0)
(1.02439 -0.0335139 0)
(1.02676 -0.0405372 0)
(1.02867 -0.0478835 0)
(1.0299 -0.0554424 0)
(1.03021 -0.0631179 0)
(1.02945 -0.0707617 0)
(1.02752 -0.07819 0)
(1.02437 -0.085189 0)
(1.02001 -0.0915493 0)
(1.01448 -0.0971056 0)
(1.00792 -0.101692 0)
(1.00054 -0.105112 0)
(0.992623 -0.107358 0)
(0.984411 -0.108941 0)
(0.976048 -0.110382 0)
(0.967244 -0.111319 0)
(0.957665 -0.110849 0)
(0.949018 -0.10884 0)
(0.944434 -0.106371 0)
(0.943385 -0.103944 0)
(0.942207 -0.101157 0)
(0.939948 -0.098331 0)
(0.937573 -0.0957852 0)
(0.93538 -0.0935019 0)
(1.01576 -0.00266347 0)
(1.01689 -0.00914004 0)
(1.01881 -0.014722 0)
(1.02128 -0.0211512 0)
(1.02414 -0.027647 0)
(1.0271 -0.034681 0)
(1.02991 -0.042092 0)
(1.03232 -0.0499252 0)
(1.03406 -0.0580882 0)
(1.03492 -0.0665074 0)
(1.0347 -0.0750573 0)
(1.03321 -0.0835845 0)
(1.03034 -0.0919011 0)
(1.02601 -0.0997773 0)
(1.02027 -0.106948 0)
(1.01324 -0.113129 0)
(1.00506 -0.118101 0)
(0.995955 -0.121722 0)
(0.986533 -0.123726 0)
(0.97781 -0.123792 0)
(0.970918 -0.122244 0)
(0.966666 -0.120331 0)
(0.963531 -0.119064 0)
(0.957482 -0.117802 0)
(0.94788 -0.115948 0)
(0.939116 -0.114292 0)
(0.933177 -0.112837 0)
(0.928689 -0.111201 0)
(0.925029 -0.109529 0)
(1.01704 -0.00271905 0)
(1.01828 -0.00931311 0)
(1.02039 -0.0150176 0)
(1.02312 -0.0216104 0)
(1.02631 -0.0282947 0)
(1.02966 -0.0355792 0)
(1.03293 -0.0433069 0)
(1.03584 -0.0515422 0)
(1.03815 -0.060211 0)
(1.03961 -0.0692713 0)
(1.03998 -0.0786385 0)
(1.03905 -0.088203 0)
(1.03665 -0.0977987 0)
(1.03267 -0.107175 0)
(1.02706 -0.116026 0)
(1.0198 -0.124047 0)
(1.01097 -0.130977 0)
(1.00088 -0.136588 0)
(0.99006 -0.140938 0)
(0.978919 -0.144615 0)
(0.967257 -0.147848 0)
(0.954202 -0.149628 0)
(0.940455 -0.148854 0)
(0.930497 -0.146447 0)
(0.926909 -0.143924 0)
(0.925073 -0.14088 0)
(0.921393 -0.137303 0)
(0.917324 -0.134033 0)
(0.9137 -0.131093 0)
(1.01821 -0.00275935 0)
(1.01956 -0.00943325 0)
(1.02184 -0.015226 0)
(1.02482 -0.0219408 0)
(1.02832 -0.0287665 0)
(1.03206 -0.0362454 0)
(1.03577 -0.0442238 0)
(1.03919 -0.0527817 0)
(1.04206 -0.0618644 0)
(1.04414 -0.0714633 0)
(1.04517 -0.0815333 0)
(1.04495 -0.0920051 0)
(1.04328 -0.102751 0)
(1.03994 -0.113559 0)
(1.03475 -0.124147 0)
(1.02758 -0.134172 0)
(1.01849 -0.143256 0)
(1.00776 -0.151001 0)
(0.995919 -0.156963 0)
(0.983841 -0.160498 0)
(0.972738 -0.16121 0)
(0.96416 -0.160039 0)
(0.958546 -0.159057 0)
(0.951683 -0.158692 0)
(0.939122 -0.157365 0)
(0.925084 -0.155535 0)
(0.915353 -0.154096 0)
(0.9085 -0.15224 0)
(0.902778 -0.150046 0)
(1.01928 -0.00278745 0)
(1.02073 -0.00951095 0)
(1.02317 -0.0153639 0)
(1.02638 -0.0221656 0)
(1.03018 -0.0290925 0)
(1.03428 -0.0367173 0)
(1.03841 -0.0448884 0)
(1.04232 -0.0536981 0)
(1.04575 -0.0631076 0)
(1.04847 -0.0731344 0)
(1.05024 -0.0837663 0)
(1.05086 -0.0949825 0)
(1.05007 -0.106726 0)
(1.04758 -0.118862 0)
(1.0431 -0.131148 0)
(1.03641 -0.143221 0)
(1.02745 -0.154663 0)
(1.01635 -0.165049 0)
(1.00348 -0.174016 0)
(0.98936 -0.181699 0)
(0.974176 -0.188721 0)
(0.957243 -0.194601 0)
(0.937921 -0.197176 0)
(0.920216 -0.195764 0)
(0.911039 -0.192976 0)
(0.907976 -0.189826 0)
(0.902798 -0.185357 0)
(0.895953 -0.180874 0)
(0.890041 -0.176978 0)
(1.02025 -0.00280599 0)
(1.02179 -0.00955539 0)
(1.02438 -0.0154459 0)
(1.02781 -0.0223061 0)
(1.03189 -0.0293005 0)
(1.03633 -0.0370307 0)
(1.04086 -0.0453447 0)
(1.04523 -0.0543427 0)
(1.04921 -0.0639966 0)
(1.05257 -0.0743423 0)
(1.05511 -0.0853986 0)
(1.0566 -0.0972019 0)
(1.05677 -0.109776 0)
(1.0553 -0.123072 0)
(1.05183 -0.136916 0)
(1.04603 -0.150999 0)
(1.03767 -0.16492 0)
(1.02676 -0.178163 0)
(1.01355 -0.189983 0)
(0.998677 -0.199295 0)
(0.98332 -0.204804 0)
(0.969211 -0.20624 0)
(0.958643 -0.205963 0)
(0.950082 -0.207012 0)
(0.935543 -0.207881 0)
(0.914527 -0.206582 0)
(0.897699 -0.205228 0)
(0.886987 -0.203491 0)
(0.878007 -0.200574 0)
(1.02114 -0.00281721 0)
(1.02275 -0.0095743 0)
(1.02549 -0.0154846 0)
(1.02911 -0.0223802 0)
(1.03345 -0.0294154 0)
(1.0382 -0.0372175 0)
(1.04311 -0.0456318 0)
(1.04792 -0.054763 0)
(1.05242 -0.0645895 0)
(1.05639 -0.0751602 0)
(1.05966 -0.0865219 0)
(1.06201 -0.0987616 0)
(1.06321 -0.111975 0)
(1.06292 -0.126209 0)
(1.06073 -0.1414 0)
(1.0562 -0.157347 0)
(1.04895 -0.173696 0)
(1.03877 -0.189898 0)
(1.02558 -0.205193 0)
(1.00952 -0.218957 0)
(0.990941 -0.231619 0)
(0.969821 -0.243849 0)
(0.9452 -0.253534 0)
(0.91833 -0.256534 0)
(0.898388 -0.254016 0)
(0.890699 -0.250732 0)
(0.884238 -0.245909 0)
(0.87324 -0.239564 0)
(0.863288 -0.23414 0)
(1.02194 -0.00282291 0)
(1.02362 -0.00957413 0)
(1.02649 -0.0154907 0)
(1.03029 -0.0224036 0)
(1.03487 -0.0294581 0)
(1.03991 -0.0373054 0)
(1.04516 -0.0457849 0)
(1.05039 -0.0550044 0)
(1.05536 -0.064946 0)
(1.0599 -0.0756659 0)
(1.06384 -0.0872286 0)
(1.06704 -0.0997578 0)
(1.0693 -0.113413 0)
(1.07029 -0.128345 0)
(1.06958 -0.144629 0)
(1.06663 -0.162205 0)
(1.06095 -0.180835 0)
(1.05206 -0.200037 0)
(1.03959 -0.219009 0)
(1.02362 -0.236475 0)
(1.00505 -0.250462 0)
(0.985581 -0.258727 0)
(0.967862 -0.261525 0)
(0.954463 -0.263873 0)
(0.93884 -0.268823 0)
(0.91153 -0.271059 0)
(0.882498 -0.270034 0)
(0.864025 -0.268914 0)
(0.849981 -0.26546 0)
(1.02267 -0.00282451 0)
(1.02442 -0.00956003 0)
(1.02741 -0.0154728 0)
(1.03137 -0.0223888 0)
(1.03617 -0.0294464 0)
(1.04147 -0.037318 0)
(1.04704 -0.0458345 0)
(1.05263 -0.0551075 0)
(1.05804 -0.0651193 0)
(1.06309 -0.0759257 0)
(1.06768 -0.0875977 0)
(1.0717 -0.100284 0)
(1.075 -0.114201 0)
(1.07729 -0.1296 0)
(1.07814 -0.146697 0)
(1.07702 -0.165602 0)
(1.0733 -0.186241 0)
(1.06629 -0.208228 0)
(1.0553 -0.23078 0)
(1.03993 -0.252745 0)
(1.02006 -0.273399 0)
(0.995622 -0.293806 0)
(0.966383 -0.314264 0)
(0.931551 -0.329036 0)
(0.896393 -0.331769 0)
(0.875326 -0.328161 0)
(0.865727 -0.324145 0)
(0.8502 -0.316548 0)
(0.832643 -0.30849 0)
(1.02334 -0.00282313 0)
(1.02514 -0.00953609 0)
(1.02824 -0.0154379 0)
(1.03235 -0.0223463 0)
(1.03736 -0.0293947 0)
(1.0429 -0.0372747 0)
(1.04875 -0.0458066 0)
(1.05468 -0.0551063 0)
(1.06048 -0.065153 0)
(1.06601 -0.0759949 0)
(1.07119 -0.087702 0)
(1.07596 -0.100438 0)
(1.08024 -0.114465 0)
(1.08379 -0.13012 0)
(1.08624 -0.147748 0)
(1.08709 -0.167637 0)
(1.08565 -0.189914 0)
(1.08101 -0.214369 0)
(1.07215 -0.240407 0)
(1.05834 -0.267025 0)
(1.0395 -0.2924 0)
(1.01674 -0.313266 0)
(0.992362 -0.325829 0)
(0.969984 -0.331577 0)
(0.950785 -0.340253 0)
(0.921236 -0.351601 0)
(0.877132 -0.354847 0)
(0.841681 -0.354359 0)
(0.818999 -0.35188 0)
(1.02394 -0.00281961 0)
(1.0258 -0.00950548 0)
(1.029 -0.0153915 0)
(1.03323 -0.0222844 0)
(1.03843 -0.0293146 0)
(1.04418 -0.0371911 0)
(1.0503 -0.0457219 0)
(1.05654 -0.0550278 0)
(1.0627 -0.065082 0)
(1.06865 -0.0759213 0)
(1.07436 -0.0876088 0)
(1.07981 -0.100314 0)
(1.08498 -0.114325 0)
(1.08972 -0.130048 0)
(1.09375 -0.14794 0)
(1.09662 -0.168461 0)
(1.09766 -0.191964 0)
(1.09577 -0.218462 0)
(1.08968 -0.247553 0)
(1.07846 -0.278401 0)
(1.06131 -0.309538 0)
(1.03724 -0.340347 0)
(1.00566 -0.373112 0)
(0.965829 -0.406661 0)
(0.917066 -0.427833 0)
(0.872031 -0.429349 0)
(0.848279 -0.425664 0)
(0.829232 -0.420571 0)
(0.800066 -0.409331 0)
(1.02448 -0.00281465 0)
(1.02639 -0.00947073 0)
(1.02968 -0.0153379 0)
(1.03403 -0.0222096 0)
(1.0394 -0.0292156 0)
(1.04534 -0.0370798 0)
(1.0517 -0.0455972 0)
(1.05822 -0.0548943 0)
(1.0647 -0.0649361 0)
(1.07104 -0.0757465 0)
(1.07721 -0.0873765 0)
(1.08326 -0.0999912 0)
(1.08922 -0.113888 0)
(1.09507 -0.129521 0)
(1.10061 -0.147448 0)
(1.10548 -0.168275 0)
(1.10905 -0.192575 0)
(1.11018 -0.220616 0)
(1.10737 -0.252231 0)
(1.09942 -0.286998 0)
(1.08521 -0.323923 0)
(1.06391 -0.36053 0)
(1.03693 -0.391775 0)
(1.00687 -0.411314 0)
(0.977749 -0.423222 0)
(0.946833 -0.444749 0)
(0.894118 -0.465328 0)
(0.829844 -0.468607 0)
(0.786591 -0.468295 0)
(1.02497 -0.00280875 0)
(1.02692 -0.0094338 0)
(1.03028 -0.0152803 0)
(1.03474 -0.0221273 0)
(1.04026 -0.029105 0)
(1.04638 -0.0369507 0)
(1.05296 -0.0454457 0)
(1.05972 -0.0547238 0)
(1.06649 -0.0647397 0)
(1.07317 -0.0755038 0)
(1.07975 -0.0870505 0)
(1.08632 -0.0995311 0)
(1.09301 -0.113241 0)
(1.09986 -0.128664 0)
(1.1068 -0.146437 0)
(1.11357 -0.167288 0)
(1.11963 -0.191975 0)
(1.12389 -0.221041 0)
(1.12469 -0.254598 0)
(1.12066 -0.292537 0)
(1.11069 -0.334268 0)
(1.09284 -0.378021 0)
(1.06477 -0.423726 0)
(1.02516 -0.476012 0)
(0.971512 -0.530872 0)
(0.902506 -0.561073 0)
(0.84284 -0.560527 0)
(0.810226 -0.559116 0)
(0.771161 -0.551093 0)
(1.0254 -0.00280236 0)
(1.02739 -0.0093962 0)
(1.03083 -0.0152214 0)
(1.03538 -0.0220415 0)
(1.04104 -0.0289888 0)
(1.04731 -0.0368116 0)
(1.05408 -0.0452785 0)
(1.06107 -0.0545308 0)
(1.0681 -0.0645119 0)
(1.07507 -0.0752187 0)
(1.08201 -0.0866655 0)
(1.08905 -0.0989841 0)
(1.09637 -0.112459 0)
(1.10411 -0.127587 0)
(1.11231 -0.14506 0)
(1.12085 -0.165705 0)
(1.12929 -0.190426 0)
(1.13662 -0.220017 0)
(1.14123 -0.254902 0)
(1.14156 -0.295233 0)
(1.13639 -0.341109 0)
(1.12362 -0.391853 0)
(1.1012 -0.444475 0)
(1.07055 -0.491519 0)
(1.03349 -0.522235 0)
(0.993793 -0.546849 0)
(0.941805 -0.593732 0)
(0.852191 -0.625906 0)
(0.760207 -0.625971 0)
(1.02578 -0.00279575 0)
(1.02781 -0.00935906 0)
(1.03131 -0.015163 0)
(1.03594 -0.0219553 0)
(1.04172 -0.0288714 0)
(1.04813 -0.0366687 0)
(1.05508 -0.0451039 0)
(1.06227 -0.0543263 0)
(1.06952 -0.0642671 0)
(1.07676 -0.0749104 0)
(1.08401 -0.0862486 0)
(1.09145 -0.09839 0)
(1.09932 -0.111601 0)
(1.10784 -0.126378 0)
(1.11716 -0.143444 0)
(1.12731 -0.163708 0)
(1.13797 -0.18818 0)
(1.14822 -0.217844 0)
(1.15663 -0.253456 0)
(1.16158 -0.295466 0)
(1.16168 -0.344317 0)
(1.15542 -0.400119 0)
(1.13945 -0.461235 0)
(1.10837 -0.528326 0)
(1.06023 -0.611571 0)
(0.989587 -0.704251 0)
(0.888149 -0.749961 0)
(0.798556 -0.746696 0)
(0.742596 -0.749854 0)
(1.02613 -0.00278917 0)
(1.02819 -0.00932321 0)
(1.03174 -0.0151064 0)
(1.03644 -0.021871 0)
(1.04233 -0.0287561 0)
(1.04886 -0.0365266 0)
(1.05597 -0.0449285 0)
(1.06333 -0.0541189 0)
(1.07079 -0.0640166 0)
(1.07825 -0.0745939 0)
(1.08578 -0.0858211 0)
(1.09356 -0.0977803 0)
(1.10189 -0.110715 0)
(1.11108 -0.125108 0)
(1.12139 -0.1417 0)
(1.13298 -0.161451 0)
(1.14567 -0.185465 0)
(1.15863 -0.21485 0)
(1.17064 -0.250631 0)
(1.1803 -0.29362 0)
(1.18597 -0.344437 0)
(1.18628 -0.404018 0)
(1.17868 -0.473149 0)
(1.15844 -0.549045 0)
(1.12519 -0.620427 0)
(1.08001 -0.669141 0)
(1.02515 -0.721996 0)
(0.933589 -0.822831 0)
(0.773376 -0.862438 0)
(1.02643 -0.00278276 0)
(1.02852 -0.00928921 0)
(1.03211 -0.0150525 0)
(1.03689 -0.0217901 0)
(1.04287 -0.0286453 0)
(1.04951 -0.0363886 0)
(1.05676 -0.044757 0)
(1.06427 -0.0539147 0)
(1.07191 -0.0637684 0)
(1.07957 -0.0742803 0)
(1.08733 -0.0853983 0)
(1.0954 -0.0971776 0)
(1.10412 -0.109834 0)
(1.11389 -0.123832 0)
(1.12505 -0.139911 0)
(1.13791 -0.159065 0)
(1.15242 -0.182467 0)
(1.16787 -0.21132 0)
(1.18316 -0.246802 0)
(1.19732 -0.29009 0)
(1.20877 -0.342105 0)
(1.21576 -0.403879 0)
(1.21751 -0.477412 0)
(1.20911 -0.562729 0)
(1.17749 -0.659553 0)
(1.12215 -0.790896 0)
(1.04075 -0.962373 0)
(0.877799 -1.05165 0)
(0.69018 -1.0371 0)
(1.0267 -0.00277664 0)
(1.02881 -0.00925748 0)
(1.03245 -0.0150021 0)
(1.03728 -0.021714 0)
(1.04335 -0.0285406 0)
(1.05008 -0.0362574 0)
(1.05746 -0.0445929 0)
(1.0651 -0.0537184 0)
(1.0729 -0.0635291 0)
(1.08073 -0.0739781 0)
(1.08869 -0.0849917 0)
(1.097 -0.0965983 0)
(1.10606 -0.108984 0)
(1.11631 -0.122588 0)
(1.1282 -0.138143 0)
(1.14215 -0.156655 0)
(1.15826 -0.179345 0)
(1.17596 -0.207494 0)
(1.19424 -0.242363 0)
(1.21242 -0.285339 0)
(1.22956 -0.337795 0)
(1.24353 -0.400714 0)
(1.25348 -0.476392 0)
(1.25782 -0.569881 0)
(1.24768 -0.680603 0)
(1.21912 -0.788477 0)
(1.16885 -0.869673 0)
(1.09191 -1.00069 0)
(0.897108 -1.22198 0)
(1.02693 -0.0027709 0)
(1.02906 -0.00922821 0)
(1.03274 -0.0149553 0)
(1.03763 -0.0216432 0)
(1.04377 -0.0284432 0)
(1.05059 -0.0361343 0)
(1.05807 -0.0444385 0)
(1.06583 -0.053533 0)
(1.07376 -0.0633026 0)
(1.08175 -0.0736923 0)
(1.08987 -0.0846083 0)
(1.09839 -0.0960525 0)
(1.10772 -0.108181 0)
(1.11838 -0.121405 0)
(1.1309 -0.136441 0)
(1.14579 -0.154299 0)
(1.16327 -0.17622 0)
(1.18295 -0.20355 0)
(1.20393 -0.237611 0)
(1.22565 -0.279834 0)
(1.24791 -0.331946 0)
(1.26895 -0.395291 0)
(1.2868 -0.47156 0)
(1.30366 -0.566915 0)
(1.3156 -0.685042 0)
(1.29573 -0.815694 0)
(1.24268 -1.01235 0)
(1.17557 -1.37994 0)
(0.82809 -1.5492 0)
(0.999365 -0.00541798 0)
(0.99946 -0.00531126 0)
(0.999455 -0.00520479 0)
(0.999341 -0.0050981 0)
(0.999102 -0.00499089 0)
(0.998715 -0.00488283 0)
(0.998151 -0.00477392 0)
(0.997383 -0.00466464 0)
(0.996389 -0.00455605 0)
(0.995162 -0.00444981 0)
(0.993715 -0.00434813 0)
(0.992087 -0.00425362 0)
(0.99035 -0.0041689 0)
(0.988606 -0.00409614 0)
(0.986981 -0.00403655 0)
(0.985612 -0.00398989 0)
(0.984625 -0.00395419 0)
(0.984122 -0.00392578 0)
(0.984157 -0.00389966 0)
(0.997521 -0.0103758 0)
(0.997432 -0.0102563 0)
(0.997427 -0.0101299 0)
(0.997512 -0.00999992 0)
(0.997709 -0.00986785 0)
(0.998045 -0.00973552 0)
(0.998558 -0.00960465 0)
(0.999286 -0.00947646 0)
(1.00027 -0.00935139 0)
(1.00152 -0.00922875 0)
(1.00304 -0.00910645 0)
(1.0048 -0.0089809 0)
(1.00672 -0.00884727 0)
(1.00868 -0.00870003 0)
(1.01053 -0.00853392 0)
(1.01211 -0.00834505 0)
(1.01324 -0.00813192 0)
(1.0138 -0.00789615 0)
(1.01371 -0.00764246 0)
(0.994511 -0.0167739 0)
(0.994435 -0.0164634 0)
(0.994308 -0.016148 0)
(0.994126 -0.0158264 0)
(0.993875 -0.0154985 0)
(0.993533 -0.015163 0)
(0.99307 -0.0148189 0)
(0.992449 -0.0144652 0)
(0.991634 -0.0141017 0)
(0.990592 -0.0137291 0)
(0.989304 -0.0133497 0)
(0.987777 -0.0129676 0)
(0.986052 -0.0125887 0)
(0.984212 -0.0122201 0)
(0.982383 -0.0118692 0)
(0.980718 -0.0115417 0)
(0.979383 -0.0112408 0)
(0.978528 -0.0109652 0)
(0.978255 -0.0107091 0)
(0.990685 -0.0213496 0)
(0.990457 -0.0210624 0)
(0.990292 -0.0207661 0)
(0.990194 -0.0204631 0)
(0.990177 -0.0201534 0)
(0.990264 -0.0198371 0)
(0.990488 -0.0195146 0)
(0.990889 -0.0191855 0)
(0.991513 -0.0188487 0)
(0.9924 -0.0185019 0)
(0.993578 -0.0181407 0)
(0.995047 -0.0177584 0)
(0.996768 -0.0173461 0)
(0.998648 -0.0168933 0)
(1.00054 -0.0163895 0)
(1.00227 -0.0158262 0)
(1.00362 -0.0151997 0)
(1.00441 -0.0145136 0)
(1.00449 -0.0137792 0)
(0.98555 -0.0267167 0)
(0.985282 -0.0261025 0)
(0.984979 -0.0254755 0)
(0.984635 -0.0248339 0)
(0.984238 -0.0241772 0)
(0.983766 -0.0235039 0)
(0.983189 -0.0228121 0)
(0.982463 -0.0221004 0)
(0.981539 -0.0213681 0)
(0.980362 -0.0206162 0)
(0.978881 -0.0198481 0)
(0.977067 -0.0190709 0)
(0.974925 -0.0182958 0)
(0.972516 -0.0175377 0)
(0.969967 -0.0168135 0)
(0.967473 -0.0161397 0)
(0.965277 -0.0155279 0)
(0.963635 -0.0149814 0)
(0.962759 -0.014493 0)
(0.979002 -0.0337414 0)
(0.97849 -0.0332016 0)
(0.978014 -0.0326422 0)
(0.977572 -0.0320656 0)
(0.977171 -0.0314715 0)
(0.976829 -0.0308604 0)
(0.976577 -0.0302336 0)
(0.976456 -0.0295927 0)
(0.976526 -0.0289396 0)
(0.976854 -0.0282749 0)
(0.977513 -0.0275978 0)
(0.978562 -0.0269035 0)
(0.980024 -0.0261832 0)
(0.981866 -0.0254226 0)
(0.983975 -0.0246036 0)
(0.986149 -0.0237075 0)
(0.988114 -0.0227195 0)
(0.989562 -0.021635 0)
(0.990214 -0.0204637 0)
(0.971905 -0.0406749 0)
(0.971267 -0.0396578 0)
(0.970598 -0.0386115 0)
(0.969898 -0.0375365 0)
(0.969165 -0.0364352 0)
(0.96839 -0.0353089 0)
(0.967554 -0.034159 0)
(0.966625 -0.0329871 0)
(0.965557 -0.0317949 0)
(0.964284 -0.0305851 0)
(0.962731 -0.0293627 0)
(0.960815 -0.028136 0)
(0.958478 -0.0269185 0)
(0.955708 -0.0257298 0)
(0.952582 -0.0245946 0)
(0.949288 -0.023539 0)
(0.946132 -0.0225844 0)
(0.943499 -0.0217399 0)
(0.941776 -0.0209953 0)
(0.962887 -0.051349 0)
(0.961858 -0.0504975 0)
(0.96087 -0.04962 0)
(0.959923 -0.0487206 0)
(0.959027 -0.0477998 0)
(0.958199 -0.046859 0)
(0.957467 -0.0459005 0)
(0.956873 -0.0449267 0)
(0.956475 -0.0439401 0)
(0.956353 -0.0429428 0)
(0.956602 -0.0419345 0)
(0.957326 -0.0409112 0)
(0.958614 -0.039862 0)
(0.9605 -0.0387675 0)
(0.962925 -0.0375987 0)
(0.965691 -0.0363203 0)
(0.968448 -0.0348983 0)
(0.970733 -0.0333107 0)
(0.972056 -0.0315597 0)
(0.954117 -0.0620736 0)
(0.952996 -0.0606118 0)
(0.951867 -0.0591014 0)
(0.950739 -0.0575448 0)
(0.949619 -0.0559458 0)
(0.948505 -0.0543067 0)
(0.94739 -0.0526295 0)
(0.94625 -0.0509156 0)
(0.945044 -0.0491658 0)
(0.943701 -0.0473807 0)
(0.942121 -0.0455618 0)
(0.940175 -0.0437132 0)
(0.93772 -0.041845 0)
(0.934643 -0.0399761 0)
(0.930913 -0.0381367 0)
(0.926655 -0.0363661 0)
(0.922204 -0.0347051 0)
(0.918098 -0.0331828 0)
(0.914985 -0.0318019 0)
(0.943592 -0.0758962 0)
(0.941877 -0.0746865 0)
(0.940229 -0.0734316 0)
(0.938649 -0.0721367 0)
(0.937143 -0.0708027 0)
(0.935723 -0.0694313 0)
(0.934407 -0.0680245 0)
(0.933225 -0.0665843 0)
(0.93222 -0.0651129 0)
(0.931459 -0.0636123 0)
(0.93104 -0.0620836 0)
(0.931089 -0.0605254 0)
(0.931755 -0.0589306 0)
(0.933167 -0.0572821 0)
(0.93537 -0.0555487 0)
(0.938246 -0.0536845 0)
(0.941438 -0.0516355 0)
(0.944347 -0.0493558 0)
(0.946238 -0.0468303 0)
(0.93341 -0.0914716 0)
(0.931565 -0.0895133 0)
(0.929738 -0.0874732 0)
(0.927943 -0.0853544 0)
(0.92619 -0.0831592 0)
(0.924481 -0.0808885 0)
(0.922814 -0.0785423 0)
(0.92117 -0.0761207 0)
(0.919518 -0.0736231 0)
(0.917795 -0.0710489 0)
(0.915903 -0.0683976 0)
(0.913697 -0.0656705 0)
(0.910985 -0.0628742 0)
(0.907558 -0.0600252 0)
(0.903253 -0.0571563 0)
(0.898067 -0.0543197 0)
(0.892281 -0.0515815 0)
(0.88654 -0.0490044 0)
(0.881782 -0.0466201 0)
(0.922024 -0.107883 0)
(0.919325 -0.106213 0)
(0.916724 -0.104444 0)
(0.914216 -0.102584 0)
(0.911801 -0.100638 0)
(0.909486 -0.098611 0)
(0.90728 -0.0965112 0)
(0.9052 -0.0943448 0)
(0.903277 -0.0921187 0)
(0.901559 -0.0898394 0)
(0.900132 -0.0875138 0)
(0.899124 -0.0851474 0)
(0.898716 -0.0827424 0)
(0.899121 -0.0802922 0)
(0.900519 -0.077773 0)
(0.902941 -0.0751361 0)
(0.906118 -0.0723071 0)
(0.909382 -0.0692018 0)
(0.911731 -0.0657638 0)
(0.910441 -0.128429 0)
(0.907406 -0.125842 0)
(0.904416 -0.123125 0)
(0.901495 -0.120282 0)
(0.898659 -0.117314 0)
(0.895918 -0.114217 0)
(0.893273 -0.110989 0)
(0.890718 -0.107627 0)
(0.88823 -0.104132 0)
(0.885767 -0.100501 0)
(0.883252 -0.0967334 0)
(0.880555 -0.0928313 0)
(0.877481 -0.0887986 0)
(0.873763 -0.0846482 0)
(0.869111 -0.0804114 0)
(0.863328 -0.0761489 0)
(0.856513 -0.0719562 0)
(0.849283 -0.0679487 0)
(0.842829 -0.0642189 0)
(0.898121 -0.14781 0)
(0.893948 -0.14544 0)
(0.889921 -0.142854 0)
(0.886038 -0.140069 0)
(0.882292 -0.137102 0)
(0.878687 -0.133975 0)
(0.875228 -0.130711 0)
(0.871928 -0.127332 0)
(0.868806 -0.123859 0)
(0.865899 -0.120315 0)
(0.863271 -0.116722 0)
(0.861032 -0.113102 0)
(0.859358 -0.109476 0)
(0.858501 -0.105857 0)
(0.858759 -0.102243 0)
(0.860361 -0.0985992 0)
(0.863247 -0.0948366 0)
(0.866814 -0.0908167 0)
(0.86982 -0.0863939 0)
(0.884729 -0.173341 0)
(0.879771 -0.169787 0)
(0.874936 -0.166021 0)
(0.870239 -0.162045 0)
(0.865725 -0.157864 0)
(0.861415 -0.153471 0)
(0.857323 -0.148869 0)
(0.853457 -0.144059 0)
(0.849809 -0.139046 0)
(0.84636 -0.133836 0)
(0.843061 -0.128433 0)
(0.839819 -0.122846 0)
(0.836468 -0.117079 0)
(0.832737 -0.111143 0)
(0.828245 -0.105061 0)
(0.82257 -0.0988902 0)
(0.815474 -0.0927495 0)
(0.807288 -0.0868235 0)
(0.79929 -0.0813254 0)
(0.870624 -0.197397 0)
(0.86413 -0.193871 0)
(0.85785 -0.189859 0)
(0.851853 -0.185448 0)
(0.846128 -0.180663 0)
(0.840684 -0.175567 0)
(0.835544 -0.170211 0)
(0.830718 -0.164648 0)
(0.826228 -0.158934 0)
(0.822095 -0.153125 0)
(0.818362 -0.14728 0)
(0.8151 -0.141458 0)
(0.81244 -0.13572 0)
(0.810606 -0.130126 0)
(0.80994 -0.124725 0)
(0.810849 -0.119534 0)
(0.813609 -0.114492 0)
(0.817941 -0.109428 0)
(0.82255 -0.104047 0)
(0.854723 -0.229029 0)
(0.846558 -0.223819 0)
(0.838747 -0.218253 0)
(0.831239 -0.212232 0)
(0.824124 -0.205811 0)
(0.817477 -0.198994 0)
(0.811316 -0.19181 0)
(0.805685 -0.1843 0)
(0.800596 -0.176502 0)
(0.796057 -0.168461 0)
(0.792046 -0.160217 0)
(0.788512 -0.151805 0)
(0.785335 -0.143256 0)
(0.782287 -0.134591 0)
(0.778971 -0.12583 0)
(0.774795 -0.117012 0)
(0.769078 -0.108245 0)
(0.761488 -0.0997555 0)
(0.752866 -0.0919341 0)
(0.837684 -0.260665 0)
(0.827225 -0.255282 0)
(0.817089 -0.248774 0)
(0.8075 -0.241478 0)
(0.798546 -0.233432 0)
(0.790218 -0.224747 0)
(0.782626 -0.215552 0)
(0.775788 -0.205947 0)
(0.769751 -0.196059 0)
(0.764529 -0.186012 0)
(0.760147 -0.175942 0)
(0.756623 -0.165991 0)
(0.754013 -0.156306 0)
(0.752439 -0.14704 0)
(0.752154 -0.138346 0)
(0.7536 -0.130358 0)
(0.757355 -0.123133 0)
(0.763762 -0.1166 0)
(0.77205 -0.110319 0)
(0.818582 -0.3015 0)
(0.804906 -0.293601 0)
(0.791885 -0.284944 0)
(0.779662 -0.275264 0)
(0.768199 -0.264611 0)
(0.757808 -0.253145 0)
(0.748483 -0.240921 0)
(0.740357 -0.228119 0)
(0.733462 -0.214872 0)
(0.72785 -0.201341 0)
(0.723515 -0.18767 0)
(0.720436 -0.173997 0)
(0.71852 -0.160433 0)
(0.717589 -0.147071 0)
(0.717286 -0.133963 0)
(0.716973 -0.121142 0)
(0.715631 -0.1087 0)
(0.712026 -0.0967754 0)
(0.705495 -0.0859176 0)
(0.798235 -0.344816 0)
(0.780343 -0.336439 0)
(0.763513 -0.325943 0)
(0.747433 -0.313585 0)
(0.732882 -0.299859 0)
(0.719666 -0.284744 0)
(0.708123 -0.268622 0)
(0.698287 -0.251681 0)
(0.690279 -0.234191 0)
(0.684105 -0.21642 0)
(0.6798 -0.198646 0)
(0.677324 -0.181157 0)
(0.67665 -0.164257 0)
(0.677755 -0.148267 0)
(0.6807 -0.133529 0)
(0.685745 -0.120405 0)
(0.693492 -0.109145 0)
(0.704772 -0.100102 0)
(0.720439 -0.0929072 0)
(0.775101 -0.399468 0)
(0.752418 -0.388161 0)
(0.72982 -0.374101 0)
(0.709459 -0.358304 0)
(0.690539 -0.34009 0)
(0.673915 -0.32026 0)
(0.659569 -0.298942 0)
(0.647754 -0.27653 0)
(0.638493 -0.253404 0)
(0.631913 -0.229902 0)
(0.627965 -0.206383 0)
(0.626654 -0.183183 0)
(0.627882 -0.16061 0)
(0.631492 -0.13894 0)
(0.637168 -0.118378 0)
(0.644304 -0.0989954 0)
(0.651709 -0.0810327 0)
(0.657774 -0.0643017 0)
(0.658724 -0.049391 0)
(0.753216 -0.460887 0)
(0.721001 -0.44692 0)
(0.692634 -0.43047 0)
(0.665438 -0.409475 0)
(0.641434 -0.385979 0)
(0.620414 -0.359961 0)
(0.602796 -0.332004 0)
(0.588594 -0.302763 0)
(0.578048 -0.272607 0)
(0.571014 -0.242078 0)
(0.567607 -0.21162 0)
(0.567716 -0.181695 0)
(0.571299 -0.152799 0)
(0.578247 -0.125471 0)
(0.588467 -0.100329 0)
(0.601956 -0.0782329 0)
(0.619293 -0.0595835 0)
(0.640535 -0.0459545 0)
(0.669995 -0.0375503 0)
(0.724455 -0.534194 0)
(0.686161 -0.518813 0)
(0.647616 -0.495579 0)
(0.613331 -0.468695 0)
(0.583041 -0.437878 0)
(0.557206 -0.40373 0)
(0.535908 -0.36773 0)
(0.519494 -0.330019 0)
(0.507503 -0.291523 0)
(0.500268 -0.252656 0)
(0.497492 -0.213918 0)
(0.499275 -0.175802 0)
(0.505554 -0.138787 0)
(0.516305 -0.103409 0)
(0.5314 -0.0702771 0)
(0.550534 -0.0395647 0)
(0.571915 -0.0125027 0)