/*--------------------------------*- C++ -*----------------------------------*\
  =========                 |
  \\      /  F ield         | OpenFOAM: The Open Source CFD Toolbox
   \\    /   O peration     | Website:  https://openfoam.org
    \\  /    A nd           | Version:  10
     \\/     M anipulation  |
\*---------------------------------------------------------------------------*/
FoamFile
{
    format      ascii;
    class       volVectorField;
    location    "0";
    object      U;
}
// * * * * * * * * * * * * * * * * * * * * * * * * * * * * * * * * * * * * * //

dimensions      [0 1 -1 0 0 0 0];

internalField   nonuniform List<vector> 
18483
(
(1 -0.000176542 0)
(1 -0.00063926 0)
(1 -0.00103822 0)
(1 -0.0014843 0)
(1 -0.0019306 0)
(1 -0.00238154 0)
(1 -0.00281638 0)
(1 -0.00321841 0)
(1.00001 -0.00357101 0)
(1.00001 -0.00386202 0)
(1.00002 -0.00408829 0)
(1.00003 -0.00425597 0)
(1.00004 -0.00438048 0)
(1.00005 -0.00449488 0)
(1.00007 -0.00463229 0)
(1.00008 -0.00480438 0)
(1.00003 -0.00495034 0)
(0.999703 -0.00497539 0)
(0.998367 -0.00484619 0)
(0.994974 -0.00462349 0)
(0.989733 -0.00452314 0)
(0.985495 -0.00468523 0)
(0.985073 -0.00490606 0)
(0.987827 -0.00493142 0)
(0.991321 -0.00476382 0)
(0.994165 -0.00451673 0)
(0.996134 -0.00426091 0)
(0.997417 -0.00402725 0)
(0.998233 -0.00382486 0)
(1.00055 -0.000514886 0)
(1.00058 -0.00184756 0)
(1.00067 -0.00299571 0)
(1.00076 -0.00428573 0)
(1.00086 -0.00557165 0)
(1.00093 -0.00687394 0)
(1.00098 -0.00813002 0)
(1.00099 -0.00929535 0)
(1.00095 -0.0103262 0)
(1.00085 -0.0111936 0)
(1.00071 -0.011885 0)
(1.00053 -0.0124082 0)
(1.00034 -0.0127591 0)
(1.00016 -0.012881 0)
(0.999958 -0.0127085 0)
(0.999664 -0.0122089 0)
(0.999224 -0.0114885 0)
(0.998899 -0.0107513 0)
(0.99978 -0.0101328 0)
(1.0037 -0.00962985 0)
(1.0107 -0.00896228 0)
(1.01642 -0.00792899 0)
(1.01631 -0.00691819 0)
(1.01157 -0.00637524 0)
(1.00628 -0.00623375 0)
(1.00239 -0.00623722 0)
(0.999901 -0.00625375 0)
(0.998362 -0.00624042 0)
(0.997399 -0.0061934 0)
(1.00159 -0.000832328 0)
(1.00171 -0.00296372 0)
(1.00194 -0.00479723 0)
(1.00219 -0.00685998 0)
(1.00246 -0.00890793 0)
(1.00267 -0.0109895 0)
(1.0028 -0.0130042 0)
(1.00282 -0.0148883 0)
(1.00271 -0.0165681 0)
(1.00247 -0.0179897 0)
(1.00213 -0.0191171 0)
(1.00173 -0.019938 0)
(1.00132 -0.0204635 0)
(1.00093 -0.0207742 0)
(1.00053 -0.0210634 0)
(1.00009 -0.0215632 0)
(0.99959 -0.0223249 0)
(0.998704 -0.0231466 0)
(0.996161 -0.0237501 0)
(0.990075 -0.0239625 0)
(0.980963 -0.0238615 0)
(0.974264 -0.0237057 0)
(0.975035 -0.0234345 0)
(0.98091 -0.0227844 0)
(0.986612 -0.0218839 0)
(0.990283 -0.0210181 0)
(0.99236 -0.0202972 0)
(0.993493 -0.0197308 0)
(0.994101 -0.0192978 0)
(1.00286 -0.00110309 0)
(1.00308 -0.00391199 0)
(1.00348 -0.0063403 0)
(1.00394 -0.00908891 0)
(1.00442 -0.0118331 0)
(1.00482 -0.0146526 0)
(1.00508 -0.017412 0)
(1.00513 -0.0200266 0)
(1.00496 -0.0223856 0)
(1.00455 -0.0244024 0)
(1.00393 -0.0260104 0)
(1.00313 -0.0271706 0)
(1.00222 -0.0278852 0)
(1.00124 -0.0282014 0)
(1.00023 -0.028116 0)
(0.999262 -0.0274129 0)
(0.998353 -0.0259302 0)
(0.997688 -0.0239113 0)
(0.998339 -0.0218446 0)
(1.00246 -0.0201805 0)
(1.01018 -0.0191996 0)
(1.01585 -0.0187228 0)
(1.01365 -0.0184622 0)
(1.00607 -0.0184692 0)
(0.999232 -0.0186345 0)
(0.995099 -0.0187083 0)
(0.992864 -0.0186402 0)
(0.991669 -0.018467 0)
(0.99102 -0.0182274 0)
(1.00418 -0.00130947 0)
(1.00452 -0.00463807 0)
(1.00511 -0.00754678 0)
(1.00581 -0.0108792 0)
(1.00655 -0.0142552 0)
(1.00718 -0.0177827 0)
(1.00762 -0.0213014 0)
(1.00776 -0.0247126 0)
(1.00755 -0.0278757 0)
(1.00695 -0.030677 0)
(1.00598 -0.033023 0)
(1.0047 -0.0348616 0)
(1.00317 -0.036198 0)
(1.00148 -0.0370769 0)
(0.999742 -0.0375979 0)
(0.997976 -0.0380213 0)
(0.996123 -0.0387067 0)
(0.993988 -0.0397372 0)
(0.99071 -0.0407671 0)
(0.984556 -0.0412387 0)
(0.975539 -0.0407047 0)
(0.968917 -0.0393156 0)
(0.970293 -0.0376885 0)
(0.976759 -0.036044 0)
(0.981899 -0.0343797 0)
(0.98431 -0.0329006 0)
(0.985233 -0.0316667 0)
(0.985493 -0.0306421 0)
(0.98546 -0.0297974 0)
(1.0055 -0.00145369 0)
(1.00598 -0.00514886 0)
(1.00678 -0.00842315 0)
(1.00777 -0.0122338 0)
(1.00882 -0.0161682 0)
(1.00977 -0.0203629 0)
(1.01048 -0.0246463 0)
(1.0108 -0.0289118 0)
(1.01066 -0.0329878 0)
(1.00999 -0.0367197 0)
(1.00883 -0.0399656 0)
(1.00722 -0.0426256 0)
(1.00531 -0.0446393 0)
(1.00321 -0.0459548 0)
(1.00106 -0.0465335 0)
(0.998937 -0.0462872 0)
(0.99695 -0.0450232 0)
(0.995315 -0.0427345 0)
(0.994756 -0.03992 0)
(0.996834 -0.0374454 0)
(1.00209 -0.0360691 0)
(1.00622 -0.0358839 0)
(1.00325 -0.036046 0)
(0.994875 -0.0359944 0)
(0.987665 -0.0359076 0)
(0.983581 -0.0357133 0)
(0.981314 -0.0353598 0)
(0.97996 -0.0349204 0)
(0.979095 -0.0344318 0)
(1.00679 -0.00154804 0)
(1.00743 -0.005484 0)
(1.00848 -0.00902331 0)
(1.0098 -0.0132098 0)
(1.01123 -0.0176168 0)
(1.01258 -0.0224129 0)
(1.01367 -0.0274242 0)
(1.01431 -0.0325388 0)
(1.01437 -0.0375566 0)
(1.01377 -0.0422863 0)
(1.01247 -0.0465411 0)
(1.01053 -0.0501699 0)
(1.00805 -0.053064 0)
(1.00513 -0.0551688 0)
(1.00188 -0.0565386 0)
(0.998348 -0.057416 0)
(0.994597 -0.058246 0)
(0.990687 -0.0593643 0)
(0.986444 -0.060618 0)
(0.980905 -0.0613543 0)
(0.973365 -0.0608773 0)
(0.966654 -0.0590258 0)
(0.965821 -0.0566018 0)
(0.969964 -0.0544306 0)
(0.973252 -0.052334 0)
(0.974024 -0.0503287 0)
(0.973747 -0.0485986 0)
(0.973166 -0.0471074 0)
(0.972513 -0.0458412 0)
(1.00804 -0.0016061 0)
(1.00883 -0.00568832 0)
(1.01015 -0.00940975 0)
(1.01183 -0.0138775 0)
(1.0137 -0.0186631 0)
(1.01552 -0.023971 0)
(1.01707 -0.0296342 0)
(1.01814 -0.0355479 0)
(1.01851 -0.0415051 0)
(1.01806 -0.047301 0)
(1.01669 -0.0527167 0)
(1.01444 -0.0575514 0)
(1.01142 -0.0616502 0)
(1.0078 -0.0649194 0)
(1.00378 -0.0673077 0)
(0.999605 -0.0687234 0)
(0.995601 -0.0689541 0)
(0.992088 -0.0677966 0)
(0.989439 -0.0654608 0)
(0.988535 -0.0626799 0)
(0.99042 -0.060346 0)
(0.993127 -0.0591088 0)
(0.990964 -0.0586747 0)
(0.982986 -0.0580848 0)
(0.975121 -0.0574559 0)
(0.970406 -0.0569636 0)
(0.967518 -0.0563468 0)
(0.965505 -0.0556508 0)
(0.96403 -0.0549121 0)
(1.00921 -0.00163863 0)
(1.01017 -0.00579809 0)
(1.01176 -0.00963439 0)
(1.01381 -0.014299 0)
(1.01614 -0.019369 0)
(1.01847 -0.0250883 0)
(1.02056 -0.0313075 0)
(1.02213 -0.0379442 0)
(1.02295 -0.0448002 0)
(1.0228 -0.0516612 0)
(1.0216 -0.0582699 0)
(1.01934 -0.0643606 0)
(1.01612 -0.0696979 0)
(1.01209 -0.0740834 0)
(1.00746 -0.0773755 0)
(1.00236 -0.0795587 0)
(0.996936 -0.0809547 0)
(0.991251 -0.0822218 0)
(0.985304 -0.0837372 0)
(0.97857 -0.0850741 0)
(0.970269 -0.0854196 0)
(0.961757 -0.0842348 0)
(0.957373 -0.0817695 0)
(0.958606 -0.079152 0)
(0.960595 -0.0766209 0)
(0.960277 -0.0739469 0)
(0.958962 -0.071538 0)
(0.957559 -0.0694455 0)
(0.956211 -0.0676372 0)
(1.0103 -0.00165251 0)
(1.01142 -0.00583733 0)
(1.01327 -0.00973361 0)
(1.01569 -0.0145214 0)
(1.01848 -0.0197875 0)
(1.02135 -0.0258172 0)
(1.02403 -0.032486 0)
(1.0262 -0.0397406 0)
(1.0276 -0.0473973 0)
(1.02797 -0.0552408 0)
(1.02714 -0.063 0)
(1.02504 -0.0703844 0)
(1.02165 -0.0771214 0)
(1.01708 -0.0829856 0)
(1.01146 -0.0878386 0)
(1.00507 -0.0916176 0)
(0.998311 -0.0941646 0)
(0.991815 -0.0950118 0)
(0.986188 -0.0938655 0)
(0.982113 -0.0913183 0)
(0.980734 -0.0884553 0)
(0.981631 -0.086328 0)
(0.979849 -0.0853509 0)
(0.971783 -0.0844694 0)
(0.962059 -0.0833498 0)
(0.955622 -0.0825139 0)
(0.951559 -0.0815995 0)
(0.94847 -0.0805251 0)
(0.946065 -0.0794047 0)
(1.01128 -0.00165199 0)
(1.01255 -0.00582139 0)
(1.01465 -0.00973244 0)
(1.01744 -0.0145806 0)
(1.02069 -0.0199634 0)
(1.02411 -0.0262074 0)
(1.02741 -0.0332156 0)
(1.03025 -0.0409664 0)
(1.03233 -0.0493048 0)
(1.03333 -0.0580428 0)
(1.03299 -0.0669325 0)
(1.03115 -0.0756896 0)
(1.02775 -0.084007 0)
(1.02288 -0.091572 0)
(1.01676 -0.0980774 0)
(1.00974 -0.103225 0)
(1.00219 -0.106837 0)
(0.994355 -0.109256 0)
(0.986226 -0.111434 0)
(0.977584 -0.113767 0)
(0.967688 -0.115414 0)
(0.956476 -0.11524 0)
(0.947394 -0.112981 0)
(0.94458 -0.11 0)
(0.945251 -0.107113 0)
(0.944093 -0.103855 0)
(0.941462 -0.100714 0)
(0.938932 -0.0980106 0)
(0.936611 -0.0956374 0)
(1.01216 -0.00163999 0)
(1.01356 -0.00576158 0)
(1.0159 -0.00965079 0)
(1.01904 -0.0145071 0)
(1.02273 -0.0199379 0)
(1.0267 -0.0263092 0)
(1.03063 -0.0335529 0)
(1.03418 -0.0416835 0)
(1.03699 -0.0505897 0)
(1.03871 -0.0601295 0)
(1.03902 -0.0700842 0)
(1.03772 -0.0801696 0)
(1.03472 -0.090033 0)
(1.03002 -0.0992771 0)
(1.02372 -0.107524 0)
(1.01599 -0.114507 0)
(1.00708 -0.120092 0)
(0.997515 -0.124065 0)
(0.988181 -0.125753 0)
(0.980103 -0.124736 0)
(0.974575 -0.121949 0)
(0.972582 -0.119267 0)
(0.970602 -0.118034 0)
(0.962374 -0.117239 0)
(0.949748 -0.115774 0)
(0.940055 -0.114534 0)
(0.934116 -0.113361 0)
(0.929513 -0.111829 0)
(0.925832 -0.110214 0)
(1.01293 -0.00161909 0)
(1.01446 -0.00566785 0)
(1.01702 -0.00950635 0)
(1.02047 -0.0143289 0)
(1.02459 -0.0197509 0)
(1.02908 -0.0261754 0)
(1.03364 -0.0335638 0)
(1.0379 -0.0419678 0)
(1.04149 -0.0513235 0)
(1.04404 -0.0615352 0)
(1.0452 -0.0724156 0)
(1.04472 -0.0837014 0)
(1.04238 -0.0950568 0)
(1.03802 -0.106096 0)
(1.03158 -0.116426 0)
(1.02321 -0.125677 0)
(1.01332 -0.133404 0)
(1.00256 -0.139207 0)
(0.991414 -0.143431 0)
(0.97985 -0.147343 0)
(0.96747 -0.151229 0)
(0.953351 -0.153344 0)
(0.938941 -0.152047 0)
(0.930194 -0.14866 0)
(0.928537 -0.145305 0)
(0.926808 -0.141535 0)
(0.922491 -0.137429 0)
(0.918264 -0.133905 0)
(0.914555 -0.130793 0)
(1.01361 -0.00159157 0)
(1.01525 -0.00554918 0)
(1.01801 -0.00931533 0)
(1.02176 -0.014072 0)
(1.02626 -0.0194403 0)
(1.03126 -0.0258581 0)
(1.03641 -0.0333132 0)
(1.04138 -0.0418916 0)
(1.04578 -0.0515732 0)
(1.04925 -0.0623097 0)
(1.05138 -0.0739657 0)
(1.05184 -0.0863384 0)
(1.05029 -0.0991491 0)
(1.0465 -0.112028 0)
(1.04035 -0.124491 0)
(1.03195 -0.135992 0)
(1.02159 -0.145993 0)
(1.0097 -0.154076 0)
(0.996975 -0.159852 0)
(0.984675 -0.162577 0)
(0.974376 -0.161881 0)
(0.967559 -0.15928 0)
(0.963192 -0.157698 0)
(0.954694 -0.157577 0)
(0.93908 -0.156431 0)
(0.924145 -0.15468 0)
(0.914966 -0.153252 0)
(0.908234 -0.151181 0)
(0.902617 -0.148781 0)
(1.0142 -0.00155949 0)
(1.01594 -0.00541359 0)
(1.01889 -0.00909226 0)
(1.0229 -0.0137592 0)
(1.02777 -0.0190407 0)
(1.03322 -0.0254047 0)
(1.03894 -0.0328603 0)
(1.0446 -0.0415242 0)
(1.04982 -0.0514179 0)
(1.05421 -0.0625454 0)
(1.05735 -0.0748391 0)
(1.05884 -0.0881651 0)
(1.05831 -0.102293 0)
(1.05548 -0.116866 0)
(1.05009 -0.131371 0)
(1.04201 -0.145238 0)
(1.03128 -0.157935 0)
(1.01833 -0.168896 0)
(1.00403 -0.177699 0)
(0.98903 -0.184958 0)
(0.973204 -0.191946 0)
(0.9555 -0.197948 0)
(0.935431 -0.199928 0)
(0.918397 -0.197025 0)
(0.911171 -0.192744 0)
(0.908375 -0.188504 0)
(0.902136 -0.183193 0)
(0.895049 -0.178277 0)
(0.889165 -0.174072 0)
(1.01472 -0.00152455 0)
(1.01655 -0.00526794 0)
(1.01966 -0.00884968 0)
(1.02391 -0.0134102 0)
(1.02911 -0.0185815 0)
(1.03498 -0.0248564 0)
(1.04124 -0.0322589 0)
(1.04755 -0.040935 0)
(1.05355 -0.0509454 0)
(1.05885 -0.0623453 0)
(1.06302 -0.0751303 0)
(1.06566 -0.0892286 0)
(1.06638 -0.104467 0)
(1.06478 -0.120556 0)
(1.06042 -0.137056 0)
(1.05292 -0.153402 0)
(1.04227 -0.168952 0)
(1.02895 -0.182973 0)
(1.01376 -0.194701 0)
(0.997697 -0.203279 0)
(0.982259 -0.207531 0)
(0.969068 -0.207257 0)
(0.95917 -0.205486 0)
(0.949119 -0.206062 0)
(0.931522 -0.206801 0)
(0.909571 -0.205027 0)
(0.894053 -0.203123 0)
(0.883943 -0.200625 0)
(0.87519 -0.196999 0)
(1.01517 -0.00148813 0)
(1.01709 -0.00511786 0)
(1.02033 -0.00859792 0)
(1.0248 -0.0130413 0)
(1.0303 -0.0180868 0)
(1.03656 -0.0242475 0)
(1.0433 -0.0315566 0)
(1.05022 -0.0401875 0)
(1.05696 -0.0502352 0)
(1.06314 -0.0617961 0)
(1.06837 -0.0749206 0)
(1.07224 -0.0896017 0)
(1.07431 -0.105748 0)
(1.07407 -0.123177 0)
(1.07097 -0.141531 0)
(1.06454 -0.160234 0)
(1.0546 -0.178581 0)
(1.04143 -0.195832 0)
(1.02559 -0.211215 0)
(1.00772 -0.224338 0)
(0.98809 -0.236205 0)
(0.966029 -0.247737 0)
(0.940263 -0.256297 0)
(0.913479 -0.257239 0)
(0.89545 -0.252357 0)
(0.88829 -0.247308 0)
(0.880142 -0.241236 0)
(0.868536 -0.234149 0)
(0.858837 -0.228228 0)
(1.01558 -0.00145132 0)
(1.01757 -0.00496779 0)
(1.02093 -0.00834497 0)
(1.02559 -0.0126655 0)
(1.03136 -0.017576 0)
(1.03796 -0.0236057 0)
(1.04515 -0.0307932 0)
(1.05263 -0.0393353 0)
(1.06006 -0.0493533 0)
(1.06709 -0.060976 0)
(1.07335 -0.0743045 0)
(1.07844 -0.0894021 0)
(1.08187 -0.106266 0)
(1.08312 -0.12481 0)
(1.08158 -0.144762 0)
(1.07662 -0.16561 0)
(1.06783 -0.18672 0)
(1.05525 -0.207403 0)
(1.0394 -0.226807 0)
(1.02098 -0.24378 0)
(1.00104 -0.256573 0)
(0.981064 -0.262983 0)
(0.96287 -0.263547 0)
(0.94773 -0.264251 0)
(0.928677 -0.268214 0)
(0.899848 -0.269138 0)
(0.872999 -0.266594 0)
(0.856181 -0.263817 0)
(0.842514 -0.258821 0)
(1.01594 -0.001415 0)
(1.01799 -0.0048211 0)
(1.02146 -0.00809673 0)
(1.02628 -0.0122927 0)
(1.0323 -0.0170641 0)
(1.03921 -0.0229527 0)
(1.04681 -0.0299996 0)
(1.05479 -0.0384205 0)
(1.06287 -0.0483557 0)
(1.07069 -0.0599605 0)
(1.07793 -0.0733826 0)
(1.08418 -0.0887502 0)
(1.08898 -0.106135 0)
(1.09181 -0.12554 0)
(1.09201 -0.14681 0)
(1.0888 -0.16957 0)
(1.08155 -0.193287 0)
(1.07023 -0.217284 0)
(1.05519 -0.240649 0)
(1.03671 -0.262257 0)
(1.01467 -0.281646 0)
(0.988339 -0.300208 0)
(0.956975 -0.318203 0)
(0.921244 -0.329684 0)
(0.887936 -0.328874 0)
(0.86835 -0.322447 0)
(0.85662 -0.316432 0)
(0.839476 -0.307545 0)
(0.822525 -0.298729 0)
(1.01626 -0.00137981 0)
(1.01837 -0.0046802 0)
(1.02193 -0.00785744 0)
(1.0269 -0.0119302 0)
(1.03313 -0.0165625 0)
(1.04032 -0.0223053 0)
(1.04828 -0.0291998 0)
(1.05674 -0.0374768 0)
(1.0654 -0.0472909 0)
(1.07395 -0.0588186 0)
(1.08209 -0.0722445 0)
(1.08945 -0.0877501 0)
(1.09561 -0.105469 0)
(1.10005 -0.125498 0)
(1.10206 -0.147816 0)
(1.10077 -0.172195 0)
(1.09549 -0.198219 0)
(1.086 -0.2253 0)
(1.07237 -0.252668 0)
(1.05456 -0.279277 0)
(1.03256 -0.303439 0)
(1.00715 -0.322056 0)
(0.980455 -0.331679 0)
(0.955716 -0.334642 0)
(0.93255 -0.341146 0)
(0.899672 -0.349703 0)
(0.857903 -0.349763 0)
(0.826392 -0.346363 0)
(0.804671 -0.341017 0)
(1.01654 -0.00134617 0)
(1.0187 -0.00454664 0)
(1.02235 -0.00763001 0)
(1.02745 -0.0115832 0)
(1.03386 -0.0160795 0)
(1.0413 -0.0216757 0)
(1.04959 -0.0284117 0)
(1.05847 -0.036531 0)
(1.06766 -0.046198 0)
(1.07688 -0.0576054 0)
(1.08585 -0.070962 0)
(1.09427 -0.0864932 0)
(1.10173 -0.104388 0)
(1.10773 -0.124834 0)
(1.11155 -0.147932 0)
(1.11233 -0.173595 0)
(1.10931 -0.201569 0)
(1.10207 -0.231424 0)
(1.09048 -0.262509 0)
(1.07435 -0.293806 0)
(1.05299 -0.323783 0)
(1.02508 -0.35198 0)
(0.989732 -0.380834 0)
(0.947317 -0.409001 0)
(0.899267 -0.423936 0)
(0.857372 -0.420667 0)
(0.832975 -0.414099 0)
(0.810455 -0.406666 0)
(0.781808 -0.394151 0)
(1.0168 -0.00131438 0)
(1.019 -0.00442141 0)
(1.02271 -0.00741632 0)
(1.02793 -0.0112549 0)
(1.03451 -0.0156206 0)
(1.04217 -0.021073 0)
(1.05075 -0.0276493 0)
(1.06 -0.0356043 0)
(1.06967 -0.0451073 0)
(1.0795 -0.0563633 0)
(1.08924 -0.0695954 0)
(1.09863 -0.0850648 0)
(1.1073 -0.10301 0)
(1.11479 -0.123692 0)
(1.1204 -0.14732 0)
(1.12329 -0.17394 0)
(1.12267 -0.203489 0)
(1.11801 -0.235714 0)
(1.10901 -0.270087 0)
(1.09526 -0.30589 0)
(1.07561 -0.341901 0)
(1.04896 -0.375735 0)
(1.01699 -0.402869 0)
(0.983026 -0.41802 0)
(0.949844 -0.426669 0)
(0.913247 -0.444243 0)
(0.860039 -0.458465 0)
(0.802682 -0.456567 0)
(0.763329 -0.451816 0)
(1.01702 -0.00128462 0)
(1.01926 -0.00430501 0)
(1.02303 -0.00721744 0)
(1.02835 -0.0109477 0)
(1.03507 -0.0151894 0)
(1.04292 -0.0205032 0)
(1.05177 -0.0269227 0)
(1.06135 -0.0347119 0)
(1.07145 -0.0440414 0)
(1.08184 -0.0551252 0)
(1.09227 -0.0681946 0)
(1.10254 -0.0835377 0)
(1.11234 -0.101434 0)
(1.12121 -0.122198 0)
(1.12856 -0.146137 0)
(1.13352 -0.173424 0)
(1.13535 -0.204165 0)
(1.13349 -0.238302 0)
(1.12747 -0.275468 0)
(1.11672 -0.31519 0)
(1.1 -0.35649 0)
(1.07517 -0.397468 0)
(1.04058 -0.438424 0)
(0.995974 -0.483651 0)
(0.940153 -0.528444 0)
(0.874124 -0.548724 0)
(0.81858 -0.543104 0)
(0.782995 -0.538572 0)
(0.741996 -0.527452 0)
(1.01721 -0.00125703 0)
(1.01949 -0.0041977 0)
(1.02331 -0.00703383 0)
(1.02871 -0.0106628 0)
(1.03557 -0.0147883 0)
(1.04358 -0.0199703 0)
(1.05266 -0.0262386 0)
(1.06254 -0.0338648 0)
(1.07302 -0.0430175 0)
(1.08389 -0.0539173 0)
(1.09496 -0.0668004 0)
(1.10603 -0.081971 0)
(1.11685 -0.0997425 0)
(1.12701 -0.120468 0)
(1.13598 -0.144537 0)
(1.14295 -0.172241 0)
(1.14719 -0.203816 0)
(1.14819 -0.239405 0)
(1.14542 -0.278832 0)
(1.13813 -0.321817 0)
(1.12496 -0.367929 0)
(1.1035 -0.416016 0)
(1.07272 -0.463508 0)
(1.03515 -0.503679 0)
(0.992348 -0.52792 0)
(0.946506 -0.548777 0)
(0.88918 -0.587251 0)
(0.805183 -0.607544 0)
(0.724695 -0.601474 0)
(1.01738 -0.00123166 0)
(1.01968 -0.00409945 0)
(1.02355 -0.00686551 0)
(1.02903 -0.0104006 0)
(1.03599 -0.0144182 0)
(1.04416 -0.0194764 0)
(1.05344 -0.0256013 0)
(1.06358 -0.0330701 0)
(1.07439 -0.0420481 0)
(1.0857 -0.0527596 0)
(1.09732 -0.0654429 0)
(1.10911 -0.08041 0)
(1.12086 -0.0980001 0)
(1.13221 -0.118597 0)
(1.14268 -0.142654 0)
(1.15154 -0.170562 0)
(1.15809 -0.202668 0)
(1.1619 -0.23927 0)
(1.16247 -0.280415 0)
(1.15897 -0.326027 0)
(1.14987 -0.375972 0)
(1.13314 -0.429643 0)
(1.10655 -0.485694 0)
(1.06671 -0.54529 0)
(1.01226 -0.616886 0)
(0.939903 -0.691649 0)
(0.845545 -0.721918 0)
(0.762 -0.71484 0)
(0.702613 -0.713479 0)
(1.01753 -0.00120851 0)
(1.01986 -0.00401008 0)
(1.02376 -0.00671222 0)
(1.0293 -0.010161 0)
(1.03636 -0.0140793 0)
(1.04466 -0.0190225 0)
(1.05412 -0.0250128 0)
(1.06448 -0.0323323 0)
(1.0756 -0.0411416 0)
(1.08728 -0.0516665 0)
(1.0994 -0.0641447 0)
(1.11182 -0.0788908 0)
(1.12441 -0.096262 0)
(1.13683 -0.116666 0)
(1.14867 -0.140603 0)
(1.15928 -0.168547 0)
(1.16802 -0.200937 0)
(1.17448 -0.238182 0)
(1.17833 -0.28052 0)
(1.1788 -0.328121 0)
(1.17412 -0.381022 0)
(1.16236 -0.439307 0)
(1.14203 -0.503473 0)
(1.11075 -0.571061 0)
(1.06815 -0.631162 0)
(1.01454 -0.669816 0)
(0.951861 -0.717566 0)
(0.858627 -0.800035 0)
(0.715253 -0.82112 0)
(1.01765 -0.00118751 0)
(1.02 -0.00392926 0)
(1.02394 -0.00657343 0)
(1.02954 -0.00994359 0)
(1.03669 -0.0137711 0)
(1.04509 -0.0186084 0)
(1.05471 -0.0244739 0)
(1.06527 -0.0316537 0)
(1.07665 -0.0403027 0)
(1.08867 -0.0506469 0)
(1.10122 -0.0629212 0)
(1.1142 -0.0774395 0)
(1.12752 -0.0945698 0)
(1.14091 -0.114739 0)
(1.15398 -0.138478 0)
(1.16619 -0.166327 0)
(1.17696 -0.198804 0)
(1.18591 -0.236395 0)
(1.19283 -0.279457 0)
(1.19719 -0.328417 0)
(1.1972 -0.383558 0)
(1.19072 -0.445087 0)
(1.17762 -0.514343 0)
(1.15485 -0.591489 0)
(1.11128 -0.677197 0)
(1.04759 -0.790966 0)
(0.963642 -0.929741 0)
(0.815579 -0.991518 0)
(0.644738 -0.977129 0)
(1.01777 -0.0011686 0)
(1.02013 -0.00385659 0)
(1.0241 -0.00644848 0)
(1.02975 -0.00974747 0)
(1.03696 -0.0134927 0)
(1.04547 -0.0182332 0)
(1.05522 -0.0239842 0)
(1.06596 -0.0310347 0)
(1.07756 -0.0395339 0)
(1.08987 -0.0497065 0)
(1.1028 -0.0617834 0)
(1.11628 -0.0760755 0)
(1.13024 -0.0929559 0)
(1.14448 -0.112865 0)
(1.15865 -0.136356 0)
(1.17229 -0.164017 0)
(1.18491 -0.19643 0)
(1.19618 -0.234144 0)
(1.20593 -0.277575 0)
(1.21388 -0.327308 0)
(1.21862 -0.383967 0)
(1.21777 -0.447806 0)
(1.21111 -0.52043 0)
(1.19833 -0.606005 0)
(1.17329 -0.704122 0)
(1.13147 -0.794245 0)
(1.06698 -0.855218 0)
(0.981555 -0.972998 0)
(0.799498 -1.15681 0)
(1.01786 -0.00115166 0)
(1.02024 -0.0037916 0)
(1.02423 -0.00633661 0)
(1.02993 -0.00957161 0)
(1.03721 -0.0132427 0)
(1.0458 -0.0178954 0)
(1.05566 -0.0235424 0)
(1.06655 -0.0304743 0)
(1.07835 -0.0388351 0)
(1.09092 -0.0488473 0)
(1.10418 -0.0607368 0)
(1.11809 -0.0748099 0)
(1.13261 -0.0914409 0)
(1.14759 -0.111078 0)
(1.16274 -0.134291 0)
(1.17766 -0.161702 0)
(1.19192 -0.193939 0)
(1.20529 -0.231602 0)
(1.21766 -0.275145 0)
(1.22882 -0.325187 0)
(1.23792 -0.382627 0)
(1.24286 -0.448072 0)
(1.24271 -0.522699 0)
(1.23991 -0.611157 0)
(1.23171 -0.71681 0)
(1.19342 -0.832155 0)
(1.12581 -1.00403 0)
(1.04982 -1.30252 0)
(0.736791 -1.40088 0)
(0.998746 -0.00365101 0)
(0.999074 -0.00348821 0)
(0.999255 -0.00332289 0)
(0.999275 -0.00315593 0)
(0.999109 -0.00298883 0)
(0.998715 -0.00282356 0)
(0.998044 -0.00266308 0)
(0.997037 -0.00251142 0)
(0.995645 -0.00237363 0)
(0.993834 -0.00225546 0)
(0.991603 -0.00216272 0)
(0.989 -0.00210047 0)
(0.986129 -0.00207193 0)
(0.983156 -0.00207751 0)
(0.980298 -0.00211411 0)
(0.977801 -0.00217493 0)
(0.975907 -0.00225001 0)
(0.974814 -0.00232744 0)
(0.974642 -0.00239501 0)
(0.996786 -0.00612488 0)
(0.996374 -0.00604513 0)
(0.996121 -0.00595649 0)
(0.996048 -0.00586061 0)
(0.996195 -0.00575712 0)
(0.996626 -0.00564594 0)
(0.997417 -0.00552696 0)
(0.998651 -0.00539985 0)
(1.0004 -0.00526425 0)
(1.00271 -0.00512003 0)
(1.00558 -0.00496776 0)
(1.00893 -0.0048093 0)
(1.01259 -0.00464836 0)
(1.01633 -0.00449094 0)
(1.01984 -0.00434518 0)
(1.02279 -0.00422056 0)
(1.02487 -0.00412635 0)
(1.02587 -0.00406949 0)
(1.02566 -0.00405242 0)
(0.994418 -0.0189632 0)
(0.994568 -0.0186734 0)
(0.994585 -0.0183962 0)
(0.994463 -0.018129 0)
(0.99418 -0.0178708 0)
(0.9937 -0.017619 0)
(0.992975 -0.0173698 0)
(0.991956 -0.0171186 0)
(0.990599 -0.0168595 0)
(0.988885 -0.0165853 0)
(0.986834 -0.0162876 0)
(0.984516 -0.0159569 0)
(0.982065 -0.0155833 0)
(0.979669 -0.0151571 0)
(0.977554 -0.0146697 0)
(0.975943 -0.0141155 0)
(0.975022 -0.0134931 0)
(0.974893 -0.0128069 0)
(0.975548 -0.0120678 0)
(0.990661 -0.017959 0)
(0.990458 -0.0176733 0)
(0.990374 -0.0173653 0)
(0.990415 -0.017039 0)
(0.990602 -0.0166948 0)
(0.990976 -0.0163335 0)
(0.991582 -0.015956 0)
(0.992471 -0.0155633 0)
(0.993683 -0.0151562 0)
(0.995233 -0.0147359 0)
(0.997094 -0.0143034 0)
(0.999185 -0.0138601 0)
(1.00136 -0.013408 0)
(1.00344 -0.0129495 0)
(1.00518 -0.012488 0)
(1.00638 -0.0120277 0)
(1.00685 -0.0115731 0)
(1.00653 -0.0111282 0)
(1.00544 -0.0106953 0)
(0.985298 -0.0290894 0)
(0.985056 -0.0284341 0)
(0.984726 -0.0277716 0)
(0.984299 -0.0271 0)
(0.983748 -0.0264195 0)
(0.983038 -0.0257289 0)
(0.982126 -0.0250272 0)
(0.980967 -0.0243135 0)
(0.979523 -0.023588 0)
(0.977777 -0.0228517 0)
(0.97575 -0.0221079 0)
(0.973511 -0.0213616 0)
(0.97119 -0.0206194 0)
(0.968969 -0.0198886 0)
(0.967064 -0.0191754 0)
(0.965687 -0.0184831 0)
(0.965003 -0.0178109 0)
(0.965084 -0.0171534 0)
(0.965893 -0.0165017 0)
(0.978505 -0.0339335 0)
(0.978056 -0.0334281 0)
(0.977698 -0.0329002 0)
(0.977432 -0.0323557 0)
(0.977277 -0.0317965 0)
(0.977261 -0.031225 0)
(0.977431 -0.0306437 0)
(0.977835 -0.0300542 0)
(0.978526 -0.0294561 0)
(0.979539 -0.0288461 0)
(0.98088 -0.0282168 0)
(0.982505 -0.0275561 0)
(0.984308 -0.0268483 0)
(0.986116 -0.0260758 0)
(0.987705 -0.025223 0)
(0.988835 -0.0242811 0)
(0.989296 -0.0232517 0)
(0.988962 -0.022149 0)
(0.987826 -0.0209983 0)
(0.971881 -0.0447567 0)
(0.971258 -0.0437352 0)
(0.970607 -0.0426873 0)
(0.969919 -0.0416118 0)
(0.969176 -0.0405097 0)
(0.968345 -0.0393805 0)
(0.96738 -0.0382237 0)
(0.966223 -0.0370399 0)
(0.964806 -0.0358314 0)
(0.963064 -0.0346042 0)
(0.960954 -0.0333691 0)
(0.958479 -0.0321428 0)
(0.955711 -0.0309473 0)
(0.95281 -0.0298076 0)
(0.950024 -0.0287465 0)
(0.947657 -0.0277785 0)
(0.946011 -0.0269034 0)
(0.945313 -0.0261035 0)
(0.945644 -0.0253447 0)
(0.962885 -0.0541668 0)
(0.961903 -0.0534137 0)
(0.960996 -0.0526257 0)
(0.960163 -0.0518083 0)
(0.959416 -0.0509619 0)
(0.958782 -0.0500882 0)
(0.958305 -0.0491899 0)
(0.958046 -0.0482694 0)
(0.958085 -0.0473281 0)
(0.958503 -0.0463642 0)
(0.959373 -0.0453706 0)
(0.960724 -0.0443328 0)
(0.962512 -0.043228 0)
(0.964591 -0.0420262 0)
(0.966698 -0.0406961 0)
(0.968485 -0.0392133 0)
(0.969575 -0.0375709 0)
(0.969655 -0.0357873 0)
(0.968575 -0.0339068 0)
(0.954995 -0.0660757 0)
(0.953847 -0.0645936 0)
(0.952698 -0.0630652 0)
(0.951549 -0.0614912 0)
(0.950391 -0.0598741 0)
(0.949204 -0.0582147 0)
(0.947953 -0.0565127 0)
(0.946581 -0.0547679 0)
(0.945007 -0.0529807 0)
(0.943128 -0.0511537 0)
(0.940837 -0.0492946 0)
(0.938044 -0.0474197 0)
(0.934724 -0.0455561 0)
(0.930965 -0.0437423 0)
(0.927011 -0.0420236 0)
(0.923261 -0.0404421 0)
(0.920222 -0.0390234 0)
(0.918381 -0.0377634 0)
(0.918054 -0.0366222 0)
(0.944117 -0.0782759 0)
(0.942388 -0.0771347 0)
(0.940739 -0.0759358 0)
(0.93917 -0.0746878 0)
(0.937688 -0.0733934 0)
(0.936313 -0.0720579 0)
(0.935078 -0.0706882 0)
(0.934037 -0.0692924 0)
(0.933272 -0.0678795 0)
(0.932891 -0.0664576 0)
(0.933021 -0.0650307 0)
(0.933783 -0.0635943 0)
(0.935252 -0.0621294 0)
(0.937387 -0.0605991 0)
(0.939978 -0.0589484 0)
(0.942617 -0.0571135 0)
(0.944739 -0.055039 0)
(0.945746 -0.052701 0)
(0.945195 -0.0501241 0)
(0.934552 -0.0935728 0)
(0.932649 -0.0916021 0)
(0.930785 -0.0895642 0)
(0.928974 -0.0874628 0)
(0.927222 -0.085301 0)
(0.925528 -0.0830797 0)
(0.923876 -0.0807979 0)
(0.92223 -0.078453 0)
(0.920523 -0.0760397 0)
(0.918647 -0.0735511 0)
(0.91645 -0.0709804 0)
(0.913751 -0.0683255 0)
(0.910374 -0.0655964 0)
(0.906224 -0.0628226 0)
(0.901375 -0.0600579 0)
(0.896167 -0.0573757 0)
(0.891221 -0.054852 0)
(0.887339 -0.0525378 0)
(0.885259 -0.0504323 0)
(0.92285 -0.108583 0)
(0.920189 -0.106916 0)
(0.917648 -0.105145 0)
(0.915222 -0.10328 0)
(0.912911 -0.101328 0)
(0.910722 -0.099296 0)
(0.908665 -0.0971923 0)
(0.906766 -0.0950259 0)
(0.905066 -0.0928071 0)
(0.903643 -0.0905485 0)
(0.902617 -0.0882641 0)
(0.90215 -0.0859669 0)
(0.902429 -0.0836619 0)
(0.903596 -0.0813358 0)
(0.905651 -0.0789463 0)
(0.908335 -0.0764169 0)
(0.911063 -0.0736485 0)
(0.912995 -0.070552 0)
(0.913278 -0.0670944 0)
(0.911248 -0.128026 0)
(0.908222 -0.125368 0)
(0.905277 -0.122593 0)
(0.902433 -0.119711 0)
(0.899705 -0.116721 0)
(0.897095 -0.11362 0)
(0.8946 -0.110407 0)
(0.892203 -0.107081 0)
(0.889865 -0.103638 0)
(0.887518 -0.100075 0)
(0.885044 -0.096386 0)
(0.882263 -0.0925632 0)
(0.878939 -0.0886033 0)
(0.874814 -0.0845176 0)
(0.869712 -0.0803469 0)
(0.863699 -0.0761749 0)
(0.857251 -0.0721243 0)
(0.851314 -0.0683257 0)
(0.847095 -0.0648612 0)
(0.898121 -0.146358 0)
(0.89409 -0.143808 0)
(0.890234 -0.141054 0)
(0.886547 -0.138109 0)
(0.883025 -0.134998 0)
(0.879671 -0.131743 0)
(0.876493 -0.128364 0)
(0.873499 -0.124884 0)
(0.870712 -0.121327 0)
(0.868167 -0.117713 0)
(0.865942 -0.114068 0)
(0.864164 -0.11042 0)
(0.863035 -0.106795 0)
(0.86281 -0.103215 0)
(0.863724 -0.0996716 0)
(0.865828 -0.0961103 0)
(0.868781 -0.0924093 0)
(0.871707 -0.0883986 0)
(0.873332 -0.0839312 0)
(0.883872 -0.170176 0)
(0.879048 -0.16641 0)
(0.874396 -0.162432 0)
(0.869933 -0.158261 0)
(0.865698 -0.1539 0)
(0.861704 -0.149345 0)
(0.857955 -0.144604 0)
(0.854448 -0.139679 0)
(0.851165 -0.134578 0)
(0.848068 -0.129307 0)
(0.845085 -0.123872 0)
(0.842093 -0.118275 0)
(0.838887 -0.112516 0)
(0.835165 -0.106599 0)
(0.83056 -0.100544 0)
(0.82477 -0.0944208 0)
(0.817831 -0.0883781 0)
(0.810455 -0.0826391 0)
(0.804157 -0.077439 0)
(0.868176 -0.193287 0)
(0.861966 -0.189264 0)
(0.856011 -0.184808 0)
(0.850383 -0.179992 0)
(0.845059 -0.174845 0)
(0.840059 -0.169429 0)
(0.835398 -0.163792 0)
(0.831082 -0.157986 0)
(0.827125 -0.152066 0)
(0.823544 -0.146087 0)
(0.820376 -0.140108 0)
(0.817693 -0.13419 0)
(0.815636 -0.128401 0)
(0.814446 -0.122807 0)
(0.814468 -0.117464 0)
(0.816067 -0.112386 0)
(0.819377 -0.10749 0)
(0.823877 -0.10255 0)
(0.828089 -0.0972241 0)
(0.850399 -0.222597 0)
(0.842575 -0.216938 0)
(0.835187 -0.210905 0)
(0.828158 -0.204429 0)
(0.821599 -0.197585 0)
(0.815552 -0.190376 0)
(0.810033 -0.182844 0)
(0.805075 -0.175033 0)
(0.800675 -0.166986 0)
(0.796829 -0.158751 0)
(0.793499 -0.150367 0)
(0.790613 -0.141872 0)
(0.788031 -0.133289 0)
(0.785496 -0.124634 0)
(0.782591 -0.115914 0)
(0.778729 -0.10716 0)
(0.773326 -0.0984871 0)
(0.766289 -0.0901593 0)
(0.758784 -0.0826318 0)
(0.830904 -0.252958 0)
(0.820987 -0.24664 0)
(0.811431 -0.239307 0)
(0.80253 -0.231295 0)
(0.7943 -0.222608 0)
(0.786767 -0.213373 0)
(0.78002 -0.203702 0)
(0.774062 -0.193693 0)
(0.768932 -0.183475 0)
(0.764628 -0.173166 0)
(0.761163 -0.162902 0)
(0.758544 -0.15282 0)
(0.75682 -0.14307 0)
(0.756109 -0.133808 0)
(0.756673 -0.125194 0)
(0.758969 -0.117378 0)
(0.763592 -0.110428 0)
(0.770843 -0.10425 0)
(0.779842 -0.0983333 0)
(0.808879 -0.290823 0)
(0.795857 -0.282065 0)
(0.783712 -0.272566 0)
(0.772369 -0.262051 0)
(0.761917 -0.250661 0)
(0.752584 -0.238528 0)
(0.744364 -0.225729 0)
(0.737379 -0.212446 0)
(0.731641 -0.198807 0)
(0.72719 -0.184975 0)
(0.724004 -0.171092 0)
(0.722047 -0.157293 0)
(0.721215 -0.14369 0)
(0.721318 -0.130371 0)
(0.721995 -0.117383 0)
(0.722609 -0.10474 0)
(0.722137 -0.0925143 0)
(0.719377 -0.0808297 0)
(0.713726 -0.0702689 0)
(0.784992 -0.332052 0)
(0.768257 -0.322234 0)
(0.752436 -0.310416 0)
(0.737639 -0.297007 0)
(0.724374 -0.282335 0)
(0.712525 -0.266429 0)
(0.702398 -0.24965 0)
(0.693995 -0.232163 0)
(0.68743 -0.214251 0)
(0.682696 -0.196165 0)
(0.67981 -0.178182 0)
(0.678727 -0.160587 0)
(0.679409 -0.143683 0)
(0.681824 -0.127792 0)
(0.686025 -0.113256 0)
(0.69226 -0.100457 0)
(0.701177 -0.0896618 0)
(0.713682 -0.0812624 0)
(0.730903 -0.074925 0)
(0.758208 -0.383014 0)
(0.736586 -0.37014 0)
(0.715714 -0.354827 0)
(0.696918 -0.337764 0)
(0.679718 -0.318522 0)
(0.664856 -0.297839 0)
(0.652269 -0.275809 0)
(0.642223 -0.252857 0)
(0.634721 -0.229314 0)
(0.629869 -0.205523 0)
(0.627627 -0.18183 0)
(0.627985 -0.158565 0)
(0.630846 -0.136035 0)
(0.636046 -0.114511 0)
(0.64327 -0.0942044 0)
(0.651937 -0.0751553 0)
(0.660842 -0.0576066 0)
(0.66849 -0.0413124 0)
(0.670793 -0.0267197 0)
(0.731347 -0.440865 0)
(0.701647 -0.425053 0)
(0.675152 -0.406763 0)
(0.650184 -0.384444 0)
(0.628419 -0.359894 0)
(0.609566 -0.332988 0)
(0.59412 -0.304416 0)
(0.582037 -0.274676 0)
(0.57353 -0.244183 0)
(0.568507 -0.213428 0)
(0.567044 -0.182846 0)
(0.56906 -0.152895 0)
(0.574506 -0.12407 0)
(0.583276 -0.0969258 0)
(0.595274 -0.072071 0)
(0.610447 -0.0504484 0)
(0.629502 -0.0324247 0)
(0.652251 -0.0196456 0)
(0.683626 -0.012691 0)
(0.698721 -0.509424 0)
(0.662593 -0.491688 0)
(0.627016 -0.466759 0)
(0.595696 -0.438641 0)
(0.568101 -0.406712 0)
(0.544996 -0.371991 0)
(0.526254 -0.335462 0)
(0.512217 -0.297473 0)
(0.502554 -0.258783 0)
(0.49749 -0.219805 0)
(0.496846 -0.181028 0)
(0.500702 -0.142927 0)
(0.509037 -0.105998 0)
(0.521848 -0.0707779 0)