/*--------------------------------*- C++ -*----------------------------------*\
  =========                 |
  \\      /  F ield         | OpenFOAM: The Open Source CFD Toolbox
   \\    /   O peration     | Website:  https://openfoam.org
    \\  /    A nd           | Version:  10
     \\/     M anipulation  |
\*---------------------------------------------------------------------------*/
FoamFile
{
    format      ascii;
    class       volVectorField;
    location    "0";
    object      U;
}
// * * * * * * * * * * * * * * * * * * * * * * * * * * * * * * * * * * * * * //

dimensions      [0 1 -1 0 0 0 0];

internalField   nonuniform List<vector> 
18483
(
(1 -0.000206616 0)
(1 -0.000744899 0)
(1 -0.00119979 0)
(0.999999 -0.00169855 0)
(0.999995 -0.00218732 0)
(0.999991 -0.00267263 0)
(0.999986 -0.00313355 0)
(0.999981 -0.00355472 0)
(0.999976 -0.00392225 0)
(0.999971 -0.00422707 0)
(0.999966 -0.00446649 0)
(0.999961 -0.00464365 0)
(0.999956 -0.00476352 0)
(0.999951 -0.00485347 0)
(0.999941 -0.00494889 0)
(0.999917 -0.00508945 0)
(0.999852 -0.00526457 0)
(0.999633 -0.00539652 0)
(0.998933 -0.00541752 0)
(0.997264 -0.00529179 0)
(0.994631 -0.0050447 0)
(0.992181 -0.00478757 0)
(0.991342 -0.00458839 0)
(0.992256 -0.00439758 0)
(0.993969 -0.00418619 0)
(0.995625 -0.00396996 0)
(0.996892 -0.00376633 0)
(0.997763 -0.00358508 0)
(0.998334 -0.00342914 0)
(1.00063 -0.00057437 0)
(1.00067 -0.00206261 0)
(1.00075 -0.00333604 0)
(1.00084 -0.00475656 0)
(1.00094 -0.00616987 0)
(1.00101 -0.00760141 0)
(1.00106 -0.00898987 0)
(1.00107 -0.0102915 0)
(1.00102 -0.0114603 0)
(1.00094 -0.0124627 0)
(1.0008 -0.013276 0)
(1.00064 -0.0139165 0)
(1.00048 -0.0144121 0)
(1.00033 -0.0147397 0)
(1.00023 -0.014847 0)
(1.00014 -0.0146602 0)
(1 -0.0141938 0)
(0.999826 -0.0136079 0)
(0.999922 -0.0130657 0)
(1.00095 -0.0126907 0)
(1.00329 -0.0125551 0)
(1.0059 -0.0125337 0)
(1.00685 -0.0124564 0)
(1.00564 -0.0123781 0)
(1.00345 -0.0123581 0)
(1.00142 -0.0123626 0)
(0.99992 -0.012359 0)
(0.998919 -0.0123348 0)
(0.99827 -0.01229 0)
(1.00175 -0.000881317 0)
(1.00187 -0.00314781 0)
(1.00211 -0.00510008 0)
(1.00238 -0.00730154 0)
(1.00267 -0.00950824 0)
(1.00291 -0.0117727 0)
(1.00308 -0.0139971 0)
(1.00314 -0.0161137 0)
(1.00306 -0.018042 0)
(1.00286 -0.0197251 0)
(1.00253 -0.0211221 0)
(1.00212 -0.0222099 0)
(1.00169 -0.0229864 0)
(1.00129 -0.0234537 0)
(1.00088 -0.0237001 0)
(1.0004 -0.0239349 0)
(0.999789 -0.0243123 0)
(0.999023 -0.0247582 0)
(0.997828 -0.0250655 0)
(0.995684 -0.0250771 0)
(0.992449 -0.0247022 0)
(0.989241 -0.0240502 0)
(0.98789 -0.0233874 0)
(0.98885 -0.0227801 0)
(0.990834 -0.0221697 0)
(0.99262 -0.0215933 0)
(0.993841 -0.021094 0)
(0.994581 -0.0206813 0)
(0.995003 -0.0203489 0)
(1.00307 -0.00113973 0)
(1.0033 -0.00404988 0)
(1.00372 -0.00656453 0)
(1.00422 -0.00942062 0)
(1.00474 -0.0122965 0)
(1.0052 -0.0152748 0)
(1.00553 -0.0182296 0)
(1.00566 -0.021077 0)
(1.00556 -0.0237071 0)
(1.00522 -0.0260337 0)
(1.00465 -0.0279812 0)
(1.0039 -0.0294843 0)
(1.00304 -0.0305508 0)
(1.0021 -0.031272 0)
(1.0011 -0.0317565 0)
(1.0001 -0.0319427 0)
(0.99916 -0.0315995 0)
(0.998333 -0.03073 0)
(0.997796 -0.0296639 0)
(0.998159 -0.0287403 0)
(0.999974 -0.0281526 0)
(1.00237 -0.0278574 0)
(1.00317 -0.0275968 0)
(1.00152 -0.0272832 0)
(0.998787 -0.0270172 0)
(0.996414 -0.0267939 0)
(0.994795 -0.0265648 0)
(0.993772 -0.0263181 0)
(0.993128 -0.0260584 0)
(1.00443 -0.00135456 0)
(1.00479 -0.00479141 0)
(1.0054 -0.00776619 0)
(1.00615 -0.0111627 0)
(1.00694 -0.0145958 0)
(1.00767 -0.0181809 0)
(1.00821 -0.0217749 0)
(1.00847 -0.0252862 0)
(1.0084 -0.0285779 0)
(1.00795 -0.0315302 0)
(1.00715 -0.0340416 0)
(1.00604 -0.0360514 0)
(1.00468 -0.0375734 0)
(1.00316 -0.0386405 0)
(1.00161 -0.0392554 0)
(1.00008 -0.0394463 0)
(0.998536 -0.0394433 0)
(0.996852 -0.0395346 0)
(0.994903 -0.0396637 0)
(0.9923 -0.0395457 0)
(0.988578 -0.0389809 0)
(0.984367 -0.0380218 0)
(0.981799 -0.0369763 0)
(0.982085 -0.035999 0)
(0.983875 -0.0349814 0)
(0.98546 -0.0339421 0)
(0.986378 -0.0329778 0)
(0.9868 -0.032126 0)
(0.986936 -0.0313933 0)
(1.0058 -0.00152841 0)
(1.00628 -0.00538409 0)
(1.0071 -0.0087268 0)
(1.00812 -0.012561 0)
(1.00922 -0.0164524 0)
(1.01026 -0.0205526 0)
(1.01108 -0.0247095 0)
(1.01155 -0.0288307 0)
(1.01158 -0.0327591 0)
(1.0111 -0.0363541 0)
(1.01011 -0.0394973 0)
(1.00865 -0.042109 0)
(1.00684 -0.0441361 0)
(1.00481 -0.0455157 0)
(1.00268 -0.0462763 0)
(1.00049 -0.0465201 0)
(0.998259 -0.0462721 0)
(0.996097 -0.0454426 0)
(0.994253 -0.0440726 0)
(0.99335 -0.0425407 0)
(0.994193 -0.0412555 0)
(0.996292 -0.0403511 0)
(0.997107 -0.0395789 0)
(0.994833 -0.038748 0)
(0.990872 -0.0380413 0)
(0.987424 -0.0374979 0)
(0.985069 -0.0369945 0)
(0.983513 -0.0364894 0)
(0.982445 -0.0359817 0)
(1.00717 -0.00166616 0)
(1.00778 -0.00584668 0)
(1.00881 -0.00947863 0)
(1.01011 -0.0136635 0)
(1.01156 -0.01793 0)
(1.01294 -0.0224693 0)
(1.01409 -0.0271277 0)
(1.01484 -0.0318234 0)
(1.01503 -0.036395 0)
(1.01457 -0.0406915 0)
(1.01342 -0.0445632 0)
(1.01165 -0.0478718 0)
(1.00939 -0.050509 0)
(1.00675 -0.052412 0)
(1.00384 -0.0536215 0)
(1.00077 -0.0542057 0)
(0.997676 -0.0543362 0)
(0.99459 -0.0543249 0)
(0.99144 -0.0543739 0)
(0.987816 -0.0543467 0)
(0.98293 -0.0538834 0)
(0.976892 -0.0528237 0)
(0.972186 -0.0514591 0)
(0.971269 -0.0501222 0)
(0.972881 -0.0486761 0)
(0.974306 -0.0470722 0)
(0.974792 -0.0455277 0)
(0.974715 -0.0441424 0)
(0.97439 -0.0429369 0)
(1.00852 -0.00177408 0)
(1.00926 -0.00620269 0)
(1.01051 -0.0100601 0)
(1.0121 -0.0145248 0)
(1.01389 -0.0190982 0)
(1.01565 -0.024014 0)
(1.01717 -0.0291258 0)
(1.01825 -0.0343739 0)
(1.01868 -0.0396026 0)
(1.01835 -0.0446522 0)
(1.01718 -0.0493371 0)
(1.01521 -0.0534762 0)
(1.01253 -0.0569349 0)
(1.00926 -0.0596194 0)
(1.00555 -0.0614851 0)
(1.00159 -0.0625112 0)
(0.997562 -0.0627256 0)
(0.993678 -0.0620946 0)
(0.990213 -0.0606047 0)
(0.987737 -0.0585681 0)
(0.987239 -0.0565381 0)
(0.988841 -0.0549491 0)
(0.989785 -0.0536991 0)
(0.986745 -0.0524198 0)
(0.980794 -0.0512909 0)
(0.975492 -0.0505007 0)
(0.971948 -0.0498119 0)
(0.969558 -0.049109 0)
(0.96784 -0.0483953 0)
(1.00983 -0.00185778 0)
(1.0107 -0.00647286 0)
(1.01216 -0.0105043 0)
(1.01404 -0.0151905 0)
(1.01617 -0.0200129 0)
(1.01832 -0.025249 0)
(1.02026 -0.0307653 0)
(1.02173 -0.0365298 0)
(1.02253 -0.0423984 0)
(1.02247 -0.0482131 0)
(1.02144 -0.0537773 0)
(1.0194 -0.0588903 0)
(1.01642 -0.0633757 0)
(1.01261 -0.067073 0)
(1.00814 -0.0698741 0)
(1.00323 -0.0717384 0)
(0.998113 -0.0727429 0)
(0.993041 -0.073192 0)
(0.988122 -0.0735002 0)
(0.983053 -0.0737859 0)
(0.976717 -0.0736923 0)
(0.968415 -0.0727614 0)
(0.960682 -0.0711065 0)
(0.957789 -0.0693383 0)
(0.959245 -0.0674703 0)
(0.960693 -0.0652623 0)
(0.960621 -0.0630549 0)
(0.959851 -0.0610786 0)
(0.958888 -0.0593508 0)
(1.01107 -0.00192135 0)
(1.01206 -0.00667226 0)
(1.01372 -0.0108346 0)
(1.01587 -0.0156919 0)
(1.01835 -0.0207109 0)
(1.02091 -0.0262108 0)
(1.02329 -0.0320734 0)
(1.02523 -0.038298 0)
(1.02649 -0.0447638 0)
(1.02681 -0.0513357 0)
(1.02604 -0.0578287 0)
(1.02407 -0.064028 0)
(1.02093 -0.069705 0)
(1.01671 -0.0746368 0)
(1.01157 -0.0786485 0)
(1.00575 -0.081609 0)
(0.999529 -0.0834314 0)
(0.993308 -0.0840192 0)
(0.987545 -0.0831837 0)
(0.982813 -0.081026 0)
(0.980179 -0.078257 0)
(0.980573 -0.0758106 0)
(0.981666 -0.0740873 0)
(0.97823 -0.0725292 0)
(0.969863 -0.0709803 0)
(0.961912 -0.0699139 0)
(0.956789 -0.0690605 0)
(0.953326 -0.0681256 0)
(0.950743 -0.0671514 0)
(1.01222 -0.00196766 0)
(1.01332 -0.00681135 0)
(1.01517 -0.0110672 0)
(1.01759 -0.0160506 0)
(1.02041 -0.0212164 0)
(1.02336 -0.0269231 0)
(1.02621 -0.0330682 0)
(1.02866 -0.039687 0)
(1.03043 -0.0466937 0)
(1.03124 -0.0539898 0)
(1.03088 -0.0614104 0)
(1.02919 -0.0687352 0)
(1.02613 -0.0757025 0)
(1.02174 -0.0820411 0)
(1.01614 -0.0875094 0)
(1.00952 -0.0919097 0)
(1.00217 -0.0951305 0)
(0.994478 -0.0972518 0)
(0.986844 -0.0987166 0)
(0.979305 -0.100029 0)
(0.970948 -0.101011 0)
(0.960303 -0.100842 0)
(0.948997 -0.0990903 0)
(0.942875 -0.0966479 0)
(0.94365 -0.0942193 0)
(0.945304 -0.0913442 0)
(0.944485 -0.0882836 0)
(0.942698 -0.0855694 0)
(0.940841 -0.0831989 0)
(1.01327 -0.00199898 0)
(1.01447 -0.00689833 0)
(1.0165 -0.0112148 0)
(1.01917 -0.0162839 0)
(1.02232 -0.0215504 0)
(1.02567 -0.0274083 0)
(1.02898 -0.0337715 0)
(1.03196 -0.0407112 0)
(1.0343 -0.0481808 0)
(1.03572 -0.0561226 0)
(1.03595 -0.0644015 0)
(1.03478 -0.0728166 0)
(1.03208 -0.0811062 0)
(1.0278 -0.0889682 0)
(1.02198 -0.0960966 0)
(1.01477 -0.102203 0)
(1.00646 -0.107022 0)
(0.997514 -0.110258 0)
(0.988624 -0.111518 0)
(0.980658 -0.11051 0)
(0.974686 -0.1077 0)
(0.972254 -0.104516 0)
(0.972557 -0.102371 0)
(0.969252 -0.100972 0)
(0.958678 -0.0992462 0)
(0.947107 -0.0977779 0)
(0.939767 -0.0967344 0)
(0.934949 -0.0954717 0)
(0.931203 -0.0940708 0)
(1.01422 -0.00201748 0)
(1.01552 -0.00694091 0)
(1.01772 -0.0112894 0)
(1.02063 -0.0164087 0)
(1.02407 -0.0217343 0)
(1.02781 -0.0276919 0)
(1.03158 -0.034209 0)
(1.03509 -0.0413891 0)
(1.03807 -0.0492231 0)
(1.04019 -0.0577 0)
(1.04114 -0.066732 0)
(1.04066 -0.0761632 0)
(1.03853 -0.0857564 0)
(1.03459 -0.0951955 0)
(1.02881 -0.104115 0)
(1.02126 -0.112128 0)
(1.01212 -0.118869 0)
(1.00179 -0.124084 0)
(0.990867 -0.127907 0)
(0.979894 -0.131119 0)
(0.968561 -0.134206 0)
(0.955299 -0.136181 0)
(0.940046 -0.135494 0)
(0.928681 -0.132523 0)
(0.926634 -0.129253 0)
(0.928186 -0.125745 0)
(0.926433 -0.12162 0)
(0.923055 -0.117885 0)
(0.919906 -0.114682 0)
(1.01508 -0.00202535 0)
(1.01647 -0.00694685 0)
(1.01882 -0.0113035 0)
(1.02194 -0.0164428 0)
(1.02568 -0.0217917 0)
(1.02977 -0.0278024 0)
(1.03398 -0.0344129 0)
(1.03804 -0.0417529 0)
(1.04165 -0.0498507 0)
(1.0445 -0.0587477 0)
(1.04625 -0.0684159 0)
(1.04658 -0.078757 0)
(1.0452 -0.0895731 0)
(1.04188 -0.100559 0)
(1.03647 -0.11132 0)
(1.0289 -0.121401 0)
(1.01925 -0.130341 0)
(1.00789 -0.137681 0)
(0.995702 -0.142857 0)
(0.983892 -0.145129 0)
(0.973638 -0.14414 0)
(0.966535 -0.140991 0)
(0.963736 -0.138193 0)
(0.960263 -0.137168 0)
(0.948361 -0.136038 0)
(0.932068 -0.134147 0)
(0.920927 -0.132777 0)
(0.914141 -0.131144 0)
(0.908665 -0.129032 0)
(1.01585 -0.00202479 0)
(1.01732 -0.0069238 0)
(1.01981 -0.0112694 0)
(1.02313 -0.0164043 0)
(1.02713 -0.0217467 0)
(1.03156 -0.0277714 0)
(1.03618 -0.0344221 0)
(1.04075 -0.0418509 0)
(1.04499 -0.0501211 0)
(1.04858 -0.0593258 0)
(1.05117 -0.0694976 0)
(1.05243 -0.0806013 0)
(1.05202 -0.0924959 0)
(1.04962 -0.104918 0)
(1.04493 -0.117487 0)
(1.03773 -0.129702 0)
(1.02794 -0.140994 0)
(1.01584 -0.150796 0)
(1.00217 -0.158735 0)
(0.987706 -0.165193 0)
(0.972587 -0.171267 0)
(0.955914 -0.176851 0)
(0.936507 -0.179546 0)
(0.918028 -0.177444 0)
(0.909242 -0.173012 0)
(0.90899 -0.168712 0)
(0.906308 -0.16348 0)
(0.90042 -0.158163 0)
(0.8952 -0.153748 0)
(1.01654 -0.00201781 0)
(1.01809 -0.00687888 0)
(1.0207 -0.0111987 0)
(1.02421 -0.0163101 0)
(1.02844 -0.021623 0)
(1.03317 -0.0276305 0)
(1.03818 -0.0342783 0)
(1.04323 -0.041736 0)
(1.04806 -0.0500963 0)
(1.05239 -0.059497 0)
(1.05588 -0.0700281 0)
(1.05817 -0.0817241 0)
(1.05889 -0.0945208 0)
(1.05761 -0.108226 0)
(1.05393 -0.122506 0)
(1.04746 -0.136861 0)
(1.03792 -0.150679 0)
(1.02547 -0.163349 0)
(1.01085 -0.174212 0)
(0.99529 -0.182273 0)
(0.980162 -0.186151 0)
(0.966986 -0.185413 0)
(0.958059 -0.182435 0)
(0.95225 -0.18134 0)
(0.939918 -0.181787 0)
(0.918496 -0.180234 0)
(0.900494 -0.178133 0)
(0.89013 -0.176105 0)
(0.88191 -0.17291 0)
(1.01716 -0.00200618 0)
(1.01877 -0.00681843 0)
(1.02151 -0.0111018 0)
(1.02517 -0.0161757 0)
(1.02963 -0.0214424 0)
(1.03463 -0.0274093 0)
(1.03998 -0.0340201 0)
(1.04548 -0.041457 0)
(1.05088 -0.0498344 0)
(1.05592 -0.0593275 0)
(1.06031 -0.0700809 0)
(1.06366 -0.0822041 0)
(1.06558 -0.0957204 0)
(1.06557 -0.110523 0)
(1.06314 -0.126354 0)
(1.05775 -0.142762 0)
(1.04896 -0.159135 0)
(1.03675 -0.174785 0)
(1.02174 -0.188941 0)
(1.00469 -0.200977 0)
(0.985813 -0.211553 0)
(0.964771 -0.221988 0)
(0.940712 -0.230668 0)
(0.914388 -0.232946 0)
(0.894375 -0.228467 0)
(0.887666 -0.222753 0)
(0.883634 -0.216746 0)
(0.874236 -0.209296 0)
(0.865196 -0.202865 0)
(1.01772 -0.00199139 0)
(1.0194 -0.00674779 0)
(1.02223 -0.0109877 0)
(1.02604 -0.0160143 0)
(1.0307 -0.0212233 0)
(1.03594 -0.027133 0)
(1.04161 -0.033681 0)
(1.04751 -0.0410578 0)
(1.05343 -0.0493927 0)
(1.05915 -0.0588923 0)
(1.06438 -0.0697514 0)
(1.06878 -0.082151 0)
(1.07191 -0.0962009 0)
(1.07329 -0.111886 0)
(1.07233 -0.129046 0)
(1.06838 -0.147326 0)
(1.06083 -0.166167 0)
(1.04943 -0.184911 0)
(1.03456 -0.202805 0)
(1.01684 -0.218731 0)
(0.997243 -0.230892 0)
(0.977662 -0.237069 0)
(0.960593 -0.237045 0)
(0.94822 -0.235628 0)
(0.934473 -0.237952 0)
(0.909003 -0.239354 0)
(0.880307 -0.236743 0)
(0.862209 -0.234007 0)
(0.849489 -0.229678 0)
(1.01823 -0.00197456 0)
(1.01996 -0.00667128 0)
(1.02289 -0.0108637 0)
(1.02683 -0.0158365 0)
(1.03166 -0.0209808 0)
(1.03712 -0.0268223 0)
(1.04307 -0.0332894 0)
(1.04933 -0.0405776 0)
(1.05573 -0.048826 0)
(1.06206 -0.0582654 0)
(1.06808 -0.0691324 0)
(1.07348 -0.0816699 0)
(1.07785 -0.0960689 0)
(1.08068 -0.112411 0)
(1.08136 -0.130647 0)
(1.07913 -0.150555 0)
(1.07321 -0.171697 0)
(1.06318 -0.193475 0)
(1.04918 -0.215105 0)
(1.03152 -0.235363 0)
(1.01028 -0.253302 0)
(0.985279 -0.270155 0)
(0.956212 -0.287136 0)
(0.922562 -0.299627 0)
(0.888435 -0.300372 0)
(0.867098 -0.293317 0)
(0.858182 -0.286591 0)
(0.844869 -0.277736 0)
(0.828773 -0.26803 0)
(1.01869 -0.00195658 0)
(1.02047 -0.00659221 0)
(1.02348 -0.0107355 0)
(1.02754 -0.015651 0)
(1.03253 -0.0207267 0)
(1.03818 -0.0264939 0)
(1.04438 -0.0328686 0)
(1.05096 -0.0400496 0)
(1.05778 -0.0481804 0)
(1.06466 -0.0575081 0)
(1.07142 -0.0683016 0)
(1.07778 -0.0808555 0)
(1.08337 -0.0954361 0)
(1.08768 -0.112223 0)
(1.09005 -0.131281 0)
(1.0897 -0.152538 0)
(1.08577 -0.175715 0)
(1.07764 -0.200316 0)
(1.06517 -0.225643 0)
(1.0483 -0.250599 0)
(1.02697 -0.273463 0)
(1.00233 -0.291501 0)
(0.977093 -0.301195 0)
(0.954363 -0.303122 0)
(0.93493 -0.306562 0)
(0.907163 -0.314301 0)
(0.866275 -0.315264 0)
(0.832265 -0.311336 0)
(0.811029 -0.306521 0)
(1.01911 -0.00193814 0)
(1.02093 -0.0065131 0)
(1.02401 -0.0106073 0)
(1.02817 -0.015464 0)
(1.03331 -0.0204703 0)
(1.03913 -0.0261603 0)
(1.04555 -0.0324365 0)
(1.05242 -0.0394992 0)
(1.05961 -0.047491 0)
(1.067 -0.0566686 0)
(1.07444 -0.0673247 0)
(1.0817 -0.0797973 0)
(1.08843 -0.0944199 0)
(1.09416 -0.111464 0)
(1.09823 -0.131102 0)
(1.09986 -0.153403 0)
(1.09818 -0.178277 0)
(1.09239 -0.205383 0)
(1.08206 -0.234139 0)
(1.06687 -0.263544 0)
(1.04634 -0.291944 0)
(1.01998 -0.31853 0)
(0.987301 -0.345495 0)
(0.947609 -0.372811 0)
(0.900813 -0.389789 0)
(0.857057 -0.387912 0)
(0.832225 -0.379595 0)
(0.814063 -0.371832 0)
(0.787658 -0.358826 0)
(1.01948 -0.00191976 0)
(1.02134 -0.00643581 0)
(1.02448 -0.0104822 0)
(1.02874 -0.0152806 0)
(1.034 -0.0202182 0)
(1.03997 -0.0258311 0)
(1.04659 -0.0320067 0)
(1.05371 -0.0389453 0)
(1.06123 -0.046785 0)
(1.06908 -0.0557865 0)
(1.07714 -0.0662602 0)
(1.08521 -0.078579 0)
(1.093 -0.0931321 0)
(1.10008 -0.110271 0)
(1.10582 -0.130265 0)
(1.10946 -0.153313 0)
(1.11016 -0.179518 0)
(1.10702 -0.208734 0)
(1.09935 -0.240514 0)
(1.08657 -0.274122 0)
(1.06787 -0.308283 0)
(1.04274 -0.340864 0)
(1.01272 -0.367804 0)
(0.980518 -0.383291 0)
(0.949155 -0.389913 0)
(0.917 -0.403903 0)
(0.868265 -0.418759 0)
(0.809535 -0.417538 0)
(0.768425 -0.412213 0)
(1.0198 -0.00190188 0)
(1.0217 -0.00636167 0)
(1.0249 -0.0103624 0)
(1.02923 -0.015104 0)
(1.03461 -0.0199754 0)
(1.04072 -0.0255129 0)
(1.04751 -0.0315886 0)
(1.05485 -0.0384022 0)
(1.06267 -0.0460835 0)
(1.07092 -0.0548943 0)
(1.07952 -0.0651564 0)
(1.08832 -0.0772696 0)
(1.09709 -0.0916658 0)
(1.10543 -0.108763 0)
(1.11278 -0.12892 0)
(1.11841 -0.152445 0)
(1.12152 -0.179618 0)
(1.1212 -0.210506 0)
(1.11656 -0.244821 0)
(1.10681 -0.282066 0)
(1.09109 -0.321304 0)
(1.06814 -0.360762 0)
(1.03648 -0.400158 0)
(0.9948 -0.443363 0)
(0.941229 -0.487799 0)
(0.87573 -0.511004 0)
(0.817704 -0.50587 0)
(0.783298 -0.499127 0)
(0.74676 -0.48842 0)
(1.02009 -0.00188478 0)
(1.02203 -0.00629162 0)
(1.02528 -0.0102495 0)
(1.02968 -0.0149367 0)
(1.03515 -0.0197452 0)
(1.04137 -0.0252104 0)
(1.04832 -0.0311893 0)
(1.05585 -0.0378804 0)
(1.06393 -0.045403 0)
(1.07253 -0.0540171 0)
(1.08161 -0.0640505 0)
(1.09107 -0.0759222 0)
(1.10073 -0.090097 0)
(1.11024 -0.107047 0)
(1.1191 -0.127208 0)
(1.12663 -0.150983 0)
(1.13209 -0.178791 0)
(1.13465 -0.210907 0)
(1.13328 -0.247234 0)
(1.12701 -0.287469 0)
(1.11494 -0.331234 0)
(1.0956 -0.377575 0)
(1.06755 -0.424022 0)
(1.03209 -0.464437 0)
(0.991105 -0.489343 0)
(0.947392 -0.506818 0)
(0.894673 -0.54193 0)
(0.813706 -0.564843 0)
(0.730027 -0.558556 0)
(1.02035 -0.00186867 0)
(1.02231 -0.00622623 0)
(1.0256 -0.0101441 0)
(1.03007 -0.0147801 0)
(1.03563 -0.0195298 0)
(1.04195 -0.0249267 0)
(1.04903 -0.0308136 0)
(1.05672 -0.0373872 0)
(1.06503 -0.0447548 0)
(1.07393 -0.0531724 0)
(1.08344 -0.0629693 0)
(1.09349 -0.0745775 0)
(1.10395 -0.0884871 0)
(1.11453 -0.105212 0)
(1.12478 -0.125254 0)
(1.13409 -0.149094 0)
(1.1418 -0.177254 0)
(1.14714 -0.210175 0)
(1.14913 -0.247981 0)
(1.14664 -0.290573 0)
(1.13873 -0.337911 0)
(1.1243 -0.389678 0)
(1.10082 -0.444363 0)
(1.06409 -0.502314 0)
(1.01241 -0.571565 0)
(0.942256 -0.646992 0)
(0.847605 -0.681978 0)
(0.761236 -0.673873 0)
(0.704261 -0.670653 0)
(1.02057 -0.00185367 0)
(1.02256 -0.00616582 0)
(1.02589 -0.0100469 0)
(1.03041 -0.0146352 0)
(1.03605 -0.0193305 0)
(1.04246 -0.0246637 0)
(1.04965 -0.0304644 0)
(1.05749 -0.0369272 0)
(1.06599 -0.0441464 0)
(1.07516 -0.0523727 0)
(1.08503 -0.061933 0)
(1.09561 -0.0732678 0)
(1.10679 -0.0868868 0)
(1.11832 -0.103336 0)
(1.12982 -0.123166 0)
(1.14079 -0.146925 0)
(1.15061 -0.175211 0)
(1.15858 -0.208582 0)
(1.16383 -0.247355 0)
(1.1653 -0.291682 0)
(1.16189 -0.341724 0)
(1.15264 -0.397842 0)
(1.13556 -0.460376 0)
(1.10693 -0.526974 0)
(1.0664 -0.587862 0)
(1.01506 -0.628077 0)
(0.954937 -0.670892 0)
(0.86653 -0.751065 0)
(0.724097 -0.777842 0)
(1.02077 -0.00183984 0)
(1.02278 -0.0061105 0)
(1.02615 -0.00995779 0)
(1.03071 -0.0145022 0)
(1.03641 -0.0191478 0)
(1.0429 -0.0244221 0)
(1.0502 -0.0301431 0)
(1.05816 -0.0365029 0)
(1.06682 -0.0435822 0)
(1.07622 -0.0516257 0)
(1.08642 -0.0609558 0)
(1.09745 -0.0720172 0)
(1.10925 -0.0853338 0)
(1.12164 -0.101475 0)
(1.13427 -0.12103 0)
(1.14673 -0.144595 0)
(1.1585 -0.172832 0)
(1.16894 -0.206373 0)
(1.17722 -0.245662 0)
(1.18257 -0.291106 0)
(1.18392 -0.343136 0)
(1.18009 -0.402262 0)
(1.17031 -0.469752 0)
(1.15063 -0.545619 0)
(1.11056 -0.629681 0)
(1.04994 -0.740476 0)
(0.968531 -0.88138 0)
(0.82004 -0.951726 0)
(0.645202 -0.935114 0)
(1.02095 -0.00182721 0)
(1.02298 -0.00606026 0)
(1.02637 -0.00987688 0)
(1.03098 -0.0143813 0)
(1.03674 -0.0189816 0)
(1.04329 -0.0242022 0)
(1.05067 -0.0298503 0)
(1.05874 -0.0361153 0)
(1.06755 -0.0430648 0)
(1.07714 -0.0509367 0)
(1.08762 -0.0600473 0)
(1.09904 -0.070843 0)
(1.11139 -0.0838565 0)
(1.12452 -0.0996755 0)
(1.13817 -0.118915 0)
(1.15197 -0.142211 0)
(1.1655 -0.170266 0)
(1.1782 -0.203773 0)
(1.18928 -0.243236 0)
(1.19818 -0.289227 0)
(1.20432 -0.342541 0)
(1.20624 -0.403745 0)
(1.20305 -0.47433 0)
(1.19357 -0.558243 0)
(1.1713 -0.655129 0)
(1.13178 -0.746507 0)
(1.07144 -0.811786 0)
(0.990202 -0.924394 0)
(0.811766 -1.11005 0)
(1.0211 -0.00181577 0)
(1.02315 -0.00601495 0)
(1.02656 -0.00980388 0)
(1.03121 -0.0142721 0)
(1.03702 -0.0188316 0)
(1.04363 -0.0240034 0)
(1.05109 -0.0295856 0)
(1.05925 -0.0357641 0)
(1.06818 -0.0425946 0)
(1.07794 -0.0503077 0)
(1.08865 -0.0592126 0)
(1.10041 -0.0697548 0)
(1.11324 -0.082473 0)
(1.12703 -0.0979672 0)
(1.14156 -0.116872 0)
(1.15655 -0.13985 0)
(1.17165 -0.16763 0)
(1.18638 -0.200946 0)
(1.20002 -0.240344 0)
(1.2121 -0.286434 0)
(1.22265 -0.340308 0)
(1.23048 -0.402883 0)
(1.23385 -0.475204 0)
(1.23436 -0.561856 0)
(1.22931 -0.666273 0)
(1.19573 -0.780577 0)
(1.13361 -0.948524 0)
(1.06314 -1.25383 0)
(0.753888 -1.38267 0)
(0.998703 -0.00329553 0)
(0.998954 -0.00317045 0)
(0.999125 -0.00304305 0)
(0.999222 -0.00291338 0)
(0.99925 -0.00278152 0)
(0.999204 -0.00264734 0)
(0.999075 -0.00251089 0)
(0.998842 -0.00237253 0)
(0.998482 -0.00223303 0)
(0.997965 -0.00209378 0)
(0.997257 -0.00195696 0)
(0.99633 -0.00182566 0)
(0.995164 -0.00170396 0)
(0.993758 -0.00159679 0)
(0.992138 -0.00150954 0)
(0.990362 -0.0014475 0)
(0.988525 -0.00141492 0)
(0.986753 -0.00141413 0)
(0.985193 -0.00144462 0)
(0.997843 -0.0122328 0)
(0.997537 -0.0121695 0)
(0.997309 -0.0121017 0)
(0.997146 -0.012031 0)
(0.997046 -0.0119574 0)
(0.997015 -0.0118816 0)
(0.99707 -0.0118042 0)
(0.997238 -0.0117256 0)
(0.997555 -0.0116462 0)
(0.998069 -0.0115658 0)
(0.998832 -0.0114833 0)
(0.999897 -0.0113968 0)
(1.0013 -0.0113026 0)
(1.00307 -0.0111958 0)
(1.00518 -0.0110697 0)
(1.00755 -0.010917 0)
(1.01007 -0.0107309 0)
(1.01254 -0.0105059 0)
(1.01474 -0.0102401 0)
(0.995236 -0.0200791 0)
(0.995365 -0.0198347 0)
(0.995426 -0.0195902 0)
(0.995429 -0.0193447 0)
(0.995382 -0.0190981 0)
(0.995282 -0.0188493 0)
(0.99512 -0.0185971 0)
(0.994876 -0.0183396 0)
(0.994523 -0.0180748 0)
(0.994021 -0.0178006 0)
(0.993324 -0.0175148 0)
(0.992381 -0.0172159 0)
(0.991143 -0.0169033 0)
(0.989581 -0.0165777 0)
(0.987692 -0.0162414 0)
(0.985523 -0.0158984 0)
(0.983173 -0.0155529 0)
(0.980803 -0.0152091 0)
(0.978619 -0.0148694 0)
(0.992706 -0.0257987 0)
(0.992394 -0.0255374 0)
(0.992143 -0.0252657 0)
(0.991934 -0.0249852 0)
(0.99176 -0.0246948 0)
(0.991619 -0.0243936 0)
(0.991517 -0.0240808 0)
(0.991472 -0.0237555 0)
(0.991512 -0.0234169 0)
(0.991674 -0.0230639 0)
(0.992012 -0.0226953 0)
(0.992582 -0.0223094 0)
(0.993442 -0.0219039 0)
(0.994635 -0.0214754 0)
(0.996173 -0.0210201 0)
(0.998014 -0.0205339 0)
(1.00005 -0.0200138 0)
(1.00212 -0.0194599 0)
(1.00398 -0.0188765 0)
(0.986923 -0.0307617 0)
(0.986829 -0.0301658 0)
(0.986668 -0.0295541 0)
(0.986449 -0.0289269 0)
(0.986176 -0.0282858 0)
(0.985845 -0.0276321 0)
(0.985445 -0.0269668 0)
(0.98496 -0.0262917 0)
(0.984363 -0.0256088 0)
(0.983618 -0.0249208 0)
(0.982681 -0.0242316 0)
(0.981497 -0.023546 0)
(0.980014 -0.0228704 0)
(0.978192 -0.022213 0)
(0.976026 -0.0215828 0)
(0.973563 -0.0209886 0)
(0.970928 -0.0204373 0)
(0.968321 -0.0199307 0)
(0.966003 -0.0194638 0)
(0.981664 -0.0354854 0)
(0.981021 -0.0349908 0)
(0.980439 -0.0344781 0)
(0.979903 -0.0339502 0)
(0.979405 -0.0334065 0)
(0.978946 -0.0328469 0)
(0.978537 -0.0322718 0)
(0.978201 -0.0316817 0)
(0.977971 -0.0310769 0)
(0.977896 -0.0304574 0)
(0.978039 -0.0298226 0)
(0.978474 -0.0291702 0)
(0.979276 -0.028496 0)
(0.980503 -0.0277934 0)
(0.982172 -0.0270532 0)
(0.984231 -0.0262656 0)
(0.986533 -0.0254219 0)
(0.988841 -0.0245187 0)
(0.990843 -0.0235612 0)
(0.973976 -0.0418921 0)
(0.973518 -0.0409039 0)
(0.973008 -0.0398895 0)
(0.972461 -0.0388509 0)
(0.971881 -0.0377916 0)
(0.971269 -0.0367144 0)
(0.970621 -0.0356216 0)
(0.969921 -0.0345161 0)
(0.969147 -0.0334008 0)
(0.968261 -0.0322792 0)
(0.967208 -0.0311554 0)
(0.96592 -0.030035 0)
(0.964317 -0.0289255 0)
(0.962329 -0.0278371 0)
(0.959924 -0.0267819 0)
(0.957141 -0.0257726 0)
(0.954127 -0.0248189 0)
(0.951146 -0.0239232 0)
(0.948553 -0.0230762 0)
(0.966531 -0.0476886 0)
(0.965419 -0.0469789 0)
(0.964391 -0.0462393 0)
(0.96343 -0.0454737 0)
(0.96253 -0.044681 0)
(0.961693 -0.0438614 0)
(0.96093 -0.0430152 0)
(0.960263 -0.0421429 0)
(0.959726 -0.0412445 0)
(0.959369 -0.0403198 0)
(0.959262 -0.0393671 0)
(0.959488 -0.0383829 0)
(0.960141 -0.0373606 0)
(0.961299 -0.0362895 0)
(0.962989 -0.0351547 0)
(0.965151 -0.0339388 0)
(0.967594 -0.0326263 0)
(0.969988 -0.0312096 0)
(0.971911 -0.0296967 0)
(0.957915 -0.0578503 0)
(0.956945 -0.0564271 0)
(0.955943 -0.054962 0)
(0.954927 -0.0534575 0)
(0.953906 -0.0519183 0)
(0.952886 -0.0503476 0)
(0.951863 -0.0487481 0)
(0.950825 -0.047123 0)
(0.94975 -0.0454753 0)
(0.948596 -0.0438085 0)
(0.947298 -0.0421269 0)
(0.945767 -0.0404367 0)
(0.943892 -0.0387469 0)
(0.941565 -0.0370712 0)
(0.938713 -0.0354284 0)
(0.93536 -0.0338406 0)
(0.931683 -0.0323291 0)
(0.92804 -0.0309053 0)
(0.924934 -0.0295621 0)
(0.948726 -0.0661693 0)
(0.94698 -0.0651694 0)
(0.945343 -0.0641152 0)
(0.943799 -0.0630124 0)
(0.942341 -0.0618612 0)
(0.940971 -0.0606635 0)
(0.9397 -0.0594219 0)
(0.938546 -0.0581389 0)
(0.937541 -0.0568171 0)
(0.936733 -0.0554586 0)
(0.936192 -0.0540643 0)
(0.936012 -0.0526327 0)
(0.936309 -0.051158 0)
(0.937196 -0.049628 0)
(0.938737 -0.0480218 0)
(0.940888 -0.0463098 0)
(0.943424 -0.0444586 0)
(0.945911 -0.0424421 0)
(0.947763 -0.0402564 0)
(0.939066 -0.0811329 0)
(0.937358 -0.0791715 0)
(0.935639 -0.0771488 0)
(0.933937 -0.0750687 0)
(0.932269 -0.0729346 0)
(0.930644 -0.070748 0)
(0.929066 -0.0685096 0)
(0.927526 -0.0662205 0)
(0.926004 -0.0638814 0)
(0.924461 -0.0614937 0)
(0.922828 -0.0590594 0)
(0.920999 -0.0565824 0)
(0.918832 -0.0540707 0)
(0.916162 -0.0515396 0)
(0.912844 -0.0490156 0)
(0.908836 -0.0465379 0)
(0.904297 -0.0441547 0)
(0.899673 -0.0419103 0)
(0.89567 -0.0398234 0)
(0.928248 -0.0926437 0)
(0.925662 -0.0911617 0)
(0.923213 -0.0895755 0)
(0.920885 -0.0878952 0)
(0.91867 -0.0861271 0)
(0.916569 -0.0842795 0)
(0.91459 -0.0823616 0)
(0.912748 -0.080383 0)
(0.911066 -0.0783528 0)
(0.909584 -0.0762797 0)
(0.908368 -0.0741714 0)
(0.907514 -0.0720335 0)
(0.90716 -0.0698674 0)
(0.907468 -0.0676658 0)
(0.908586 -0.0654068 0)
(0.910559 -0.0630472 0)
(0.913203 -0.0605219 0)
(0.916009 -0.057756 0)
(0.918165 -0.0546968 0)
(0.916971 -0.111853 0)
(0.914194 -0.109168 0)
(0.911449 -0.106394 0)
(0.908771 -0.103537 0)
(0.906185 -0.100597 0)
(0.903708 -0.0975702 0)
(0.901348 -0.0944536 0)
(0.899104 -0.0912436 0)
(0.896961 -0.0879374 0)
(0.894888 -0.0845329 0)
(0.892824 -0.0810287 0)
(0.890666 -0.0774252 0)
(0.888256 -0.0737261 0)
(0.885372 -0.0699436 0)
(0.881761 -0.0661065 0)
(0.87722 -0.0622707 0)
(0.87176 -0.0585266 0)
(0.865804 -0.0549884 0)
(0.860284 -0.051757 0)
(0.904324 -0.126861 0)
(0.900529 -0.124545 0)
(0.896916 -0.122014 0)
(0.893478 -0.119296 0)
(0.890206 -0.116411 0)
(0.887098 -0.113387 0)
(0.884161 -0.110247 0)
(0.881406 -0.107021 0)
(0.87885 -0.103733 0)
(0.876521 -0.100408 0)
(0.874469 -0.0970722 0)
(0.872775 -0.0937485 0)
(0.871577 -0.0904581 0)
(0.871077 -0.0872157 0)
(0.871529 -0.0840195 0)
(0.873162 -0.0808346 0)
(0.876002 -0.0775721 0)
(0.87963 -0.0740826 0)
(0.883016 -0.0701905 0)
(0.890504 -0.149769 0)
(0.886075 -0.145952 0)
(0.881789 -0.141994 0)
(0.877665 -0.137884 0)
(0.873748 -0.133631 0)
(0.87007 -0.129229 0)
(0.866642 -0.124675 0)
(0.863474 -0.119971 0)
(0.860563 -0.115119 0)
(0.85789 -0.110121 0)
(0.855414 -0.104981 0)
(0.853057 -0.0997022 0)
(0.850676 -0.0942876 0)
(0.848037 -0.0887424 0)
(0.844792 -0.083084 0)
(0.840512 -0.0773615 0)
(0.834847 -0.0716886 0)
(0.827868 -0.0662629 0)
(0.8205 -0.0613477 0)
(0.875177 -0.169434 0)
(0.869417 -0.165681 0)
(0.86392 -0.161447 0)
(0.858742 -0.156855 0)
(0.853882 -0.151934 0)
(0.849339 -0.146751 0)
(0.84514 -0.141365 0)
(0.841292 -0.135834 0)
(0.837814 -0.130218 0)
(0.834719 -0.124579 0)
(0.832035 -0.118978 0)
(0.829808 -0.113481 0)
(0.82813 -0.108152 0)
(0.827176 -0.103057 0)
(0.827234 -0.0982531 0)
(0.828716 -0.0937702 0)
(0.832025 -0.0895648 0)
(0.8372 -0.085467 0)
(0.843358 -0.0811288 0)
(0.857646 -0.197134 0)
(0.850423 -0.191356 0)
(0.843587 -0.185313 0)
(0.837132 -0.178899 0)
(0.831114 -0.17216 0)
(0.825622 -0.165116 0)
(0.82067 -0.157788 0)
(0.816296 -0.150222 0)
(0.812512 -0.142457 0)
(0.809322 -0.134537 0)
(0.806704 -0.1265 0)
(0.804611 -0.118379 0)
(0.80294 -0.110199 0)
(0.801495 -0.101974 0)
(0.799927 -0.093711 0)
(0.797665 -0.0854234 0)
(0.79392 -0.0771931 0)
(0.787972 -0.0692202 0)
(0.779902 -0.06193 0)
(0.838323 -0.223969 0)
(0.82899 -0.217847 0)
(0.820137 -0.210672 0)
(0.811863 -0.202762 0)
(0.804312 -0.19421 0)
(0.797458 -0.185106 0)
(0.791402 -0.175596 0)
(0.786167 -0.165783 0)
(0.781786 -0.155798 0)
(0.778268 -0.145772 0)
(0.77562 -0.135845 0)
(0.773839 -0.126167 0)
(0.772944 -0.116896 0)
(0.773003 -0.108198 0)
(0.774202 -0.100243 0)
(0.77693 -0.0932037 0)
(0.78186 -0.0871738 0)
(0.789724 -0.0821616 0)
(0.800724 -0.0778175 0)
(0.816047 -0.259813 0)
(0.803925 -0.250899 0)
(0.792412 -0.241222 0)
(0.781851 -0.230697 0)
(0.77214 -0.219287 0)
(0.763571 -0.207194 0)
(0.756163 -0.194478 0)
(0.750022 -0.181312 0)
(0.745184 -0.167846 0)
(0.741693 -0.154238 0)
(0.739537 -0.140638 0)
(0.738692 -0.127183 0)
(0.739074 -0.113984 0)
(0.740526 -0.101121 0)
(0.742747 -0.0886399 0)
(0.745184 -0.076517 0)
(0.74682 -0.0648172 0)
(0.746261 -0.053599 0)
(0.741544 -0.0432115 0)
(0.792255 -0.297904 0)
(0.77596 -0.287953 0)
(0.761045 -0.276211 0)
(0.746992 -0.26267 0)
(0.734529 -0.247919 0)
(0.723556 -0.231952 0)
(0.71432 -0.215108 0)
(0.706892 -0.197613 0)
(0.701371 -0.179719 0)
(0.69776 -0.161706 0)
(0.696078 -0.143854 0)
(0.696278 -0.126459 0)
(0.698298 -0.109842 0)
(0.702074 -0.094347 0)
(0.7076 -0.0803337 0)
(0.715026 -0.0682771 0)
(0.725029 -0.058436 0)
(0.738366 -0.0512601 0)
(0.757271 -0.046951 0)
(0.764452 -0.346642 0)
(0.744021 -0.333701 0)
(0.723802 -0.317971 0)
(0.705797 -0.300677 0)
(0.689492 -0.281234 0)
(0.675489 -0.260282 0)
(0.663891 -0.238068 0)
(0.654901 -0.214914 0)
(0.648551 -0.191222 0)
(0.644962 -0.16733 0)
(0.6441 -0.1436 0)
(0.645957 -0.120383 0)
(0.65045 -0.0980029 0)
(0.657439 -0.0767331 0)
(0.66665 -0.0568326 0)
(0.67765 -0.0382134 0)
(0.68904 -0.0211578 0)
(0.699953 -0.00546076 0)
(0.705765 0.00907422 0)
(0.737778 -0.40218 0)
(0.708393 -0.385988 0)
(0.682599 -0.367443 0)
(0.658507 -0.344885 0)
(0.637449 -0.319835 0)
(0.61954 -0.29261 0)
(0.605076 -0.263585 0)
(0.59409 -0.233446 0)
(0.586826 -0.20256 0)
(0.583183 -0.171436 0)
(0.583254 -0.140535 0)
(0.586972 -0.110326 0)
(0.594283 -0.081321 0)
(0.605068 -0.0541237 0)
(0.619216 -0.0292777 0)
(0.636367 -0.00801698 0)
(0.657827 0.00935715 0)
(0.68244 0.0212876 0)
(0.71525 0.0259553 0)
(0.703954 -0.469048 0)
(0.668462 -0.45069 0)
(0.633806 -0.425617 0)
(0.602907 -0.396699 0)
(0.57619 -0.364435 0)
(0.553904 -0.329011 0)
(0.536102 -0.291875 0)
(0.523193 -0.253232 0)
(0.51478 -0.213857 0)
(0.511151 -0.174222 0)
(0.512143 -0.134801 0)
(0.517837 -0.0961116 0)