/*--------------------------------*- C++ -*----------------------------------*\
  =========                 |
  \\      /  F ield         | OpenFOAM: The Open Source CFD Toolbox
   \\    /   O peration     | Website:  https://openfoam.org
    \\  /    A nd           | Version:  10
     \\/     M anipulation  |
\*---------------------------------------------------------------------------*/
FoamFile
{
    format      ascii;
    class       volVectorField;
    location    "0";
    object      U;
}
// * * * * * * * * * * * * * * * * * * * * * * * * * * * * * * * * * * * * * //

dimensions      [0 1 -1 0 0 0 0];

internalField   nonuniform List<vector> 
18483
(
(1 -0.000208157 0)
(1 -0.00073892 0)
(1 -0.00116156 0)
(1 -0.00159959 0)
(1 -0.00199518 0)
(1.00001 -0.00235521 0)
(1.00001 -0.00266366 0)
(1.00001 -0.00291103 0)
(1.00001 -0.0030901 0)
(1.00002 -0.00319762 0)
(1.00002 -0.00323543 0)
(1.00003 -0.00321248 0)
(1.00004 -0.00314126 0)
(1.00005 -0.00305365 0)
(1.00006 -0.00299329 0)
(1.00006 -0.00299498 0)
(1.00002 -0.00304264 0)
(0.999841 -0.00307069 0)
(0.999187 -0.00302355 0)
(0.997612 -0.00287615 0)
(0.995152 -0.00267154 0)
(0.992908 -0.00251353 0)
(0.992189 -0.00243077 0)
(0.993082 -0.00235418 0)
(0.994678 -0.0022507 0)
(0.996201 -0.00213363 0)
(0.997363 -0.00202118 0)
(0.998167 -0.00192385 0)
(0.998703 -0.00184461 0)
(1.00063 -0.00059311 0)
(1.00064 -0.00209526 0)
(1.00069 -0.00329987 0)
(1.00071 -0.00456312 0)
(1.00073 -0.00571254 0)
(1.00071 -0.00677189 0)
(1.00066 -0.00769114 0)
(1.00057 -0.00844157 0)
(1.00044 -0.00899938 0)
(1.00027 -0.00935619 0)
(1.00006 -0.00951924 0)
(0.999834 -0.00952272 0)
(0.999614 -0.00941454 0)
(0.999426 -0.0091765 0)
(0.999289 -0.00874138 0)
(0.999173 -0.00805053 0)
(0.999025 -0.00712524 0)
(0.998903 -0.00610568 0)
(0.999162 -0.00515045 0)
(1.00046 -0.00438397 0)
(1.00306 -0.00383389 0)
(1.00579 -0.00333603 0)
(1.0068 -0.002783 0)
(1.0057 -0.00229277 0)
(1.0037 -0.00192757 0)
(1.00188 -0.00164623 0)
(1.00058 -0.00140516 0)
(0.999754 -0.00118093 0)
(0.999243 -0.000966257 0)
(1.0018 -0.000929188 0)
(1.00185 -0.00327227 0)
(1.00197 -0.00517752 0)
(1.00207 -0.00721209 0)
(1.00214 -0.00909919 0)
(1.00214 -0.0108872 0)
(1.00203 -0.0124904 0)
(1.00181 -0.0138609 0)
(1.00147 -0.0149507 0)
(1.00103 -0.0157376 0)
(1.0005 -0.0162129 0)
(0.999931 -0.0163801 0)
(0.999394 -0.0162598 0)
(0.998915 -0.0158805 0)
(0.998446 -0.0153517 0)
(0.997903 -0.0148946 0)
(0.997243 -0.0146401 0)
(0.996407 -0.0144949 0)
(0.995096 -0.0142405 0)
(0.992747 -0.0136925 0)
(0.989241 -0.0127899 0)
(0.985855 -0.0117276 0)
(0.984566 -0.0107844 0)
(0.985744 -0.00994228 0)
(0.987917 -0.00909966 0)
(0.989797 -0.00829445 0)
(0.991042 -0.007573 0)
(0.991766 -0.00694812 0)
(0.992152 -0.00641668 0)
(1.0032 -0.00122353 0)
(1.00332 -0.00430083 0)
(1.00355 -0.00683872 0)
(1.00377 -0.00959935 0)
(1.00394 -0.0122163 0)
(1.00399 -0.0147656 0)
(1.00387 -0.0171292 0)
(1.00355 -0.0192363 0)
(1.003 -0.0210014 0)
(1.00226 -0.0223679 0)
(1.00136 -0.0232943 0)
(1.00035 -0.023762 0)
(0.999282 -0.0238215 0)
(0.998188 -0.023594 0)
(0.997087 -0.0232036 0)
(0.996027 -0.0225909 0)
(0.995058 -0.0215585 0)
(0.994145 -0.0201214 0)
(0.993436 -0.0185698 0)
(0.993662 -0.0171904 0)
(0.995627 -0.0161167 0)
(0.998428 -0.0152608 0)
(0.999525 -0.014397 0)
(0.997904 -0.0135555 0)
(0.995106 -0.0128871 0)
(0.992705 -0.0123579 0)
(0.99108 -0.0118919 0)
(0.990054 -0.0114598 0)
(0.989402 -0.0110549 0)
(1.00467 -0.00147901 0)
(1.00488 -0.00519057 0)
(1.00524 -0.00828793 0)
(1.00562 -0.0117089 0)
(1.00596 -0.0150131 0)
(1.00613 -0.0183091 0)
(1.00606 -0.0214519 0)
(1.00568 -0.0243516 0)
(1.00496 -0.0268864 0)
(1.00391 -0.028966 0)
(1.00256 -0.0305302 0)
(1.00098 -0.031561 0)
(0.999241 -0.0320965 0)
(0.997467 -0.0321805 0)
(0.995783 -0.0318443 0)
(0.99424 -0.0311461 0)
(0.99276 -0.030349 0)
(0.991162 -0.0297423 0)
(0.989136 -0.0292703 0)
(0.98609 -0.0286835 0)
(0.981529 -0.0278114 0)
(0.9765 -0.0266944 0)
(0.973785 -0.0255662 0)
(0.974641 -0.0244588 0)
(0.977134 -0.0232295 0)
(0.97921 -0.0219549 0)
(0.980431 -0.0207683 0)
(0.98105 -0.0197201 0)
(0.981328 -0.01882 0)
(1.00617 -0.00169567 0)
(1.00648 -0.00593963 0)
(1.00701 -0.00951275 0)
(1.0076 -0.0135043 0)
(1.00816 -0.0174158 0)
(1.00853 -0.0213954 0)
(1.00859 -0.0252796 0)
(1.00825 -0.0289687 0)
(1.00744 -0.0323132 0)
(1.00615 -0.0351886 0)
(1.00442 -0.0374979 0)
(1.00234 -0.0391751 0)
(1.00005 -0.0401854 0)
(0.997676 -0.0405034 0)
(0.995311 -0.0402004 0)
(0.99297 -0.0393906 0)
(0.990675 -0.0380889 0)
(0.988527 -0.0362423 0)
(0.986813 -0.0339754 0)
(0.986308 -0.0317373 0)
(0.987926 -0.0299431 0)
(0.990833 -0.0286514 0)
(0.991771 -0.0275456 0)
(0.988875 -0.0264759 0)
(0.984265 -0.0256328 0)
(0.980522 -0.0249827 0)
(0.978121 -0.0243796 0)
(0.976633 -0.0237846 0)
(0.975679 -0.0231979 0)
(1.00769 -0.00187588 0)
(1.00812 -0.00655533 0)
(1.00884 -0.010519 0)
(1.00967 -0.0149835 0)
(1.0105 -0.0194061 0)
(1.01114 -0.0239797 0)
(1.01142 -0.0285323 0)
(1.01121 -0.0329638 0)
(1.01041 -0.0371024 0)
(1.00898 -0.0407883 0)
(1.00694 -0.043876 0)
(1.00438 -0.0462521 0)
(1.00144 -0.0478661 0)
(0.998217 -0.0487215 0)
(0.994825 -0.048902 0)
(0.991393 -0.0485163 0)
(0.988053 -0.0477593 0)
(0.984884 -0.0469563 0)
(0.981808 -0.0463097 0)
(0.978202 -0.0456701 0)
(0.972945 -0.0446593 0)
(0.96638 -0.0430781 0)
(0.961853 -0.0412165 0)
(0.961942 -0.039393 0)
(0.9645 -0.0374813 0)
(0.966427 -0.0355079 0)
(0.967196 -0.0336886 0)
(0.967332 -0.032091 0)
(0.967192 -0.0307191 0)
(1.00923 -0.00202553 0)
(1.00978 -0.00705848 0)
(1.01069 -0.0113379 0)
(1.01179 -0.0161866 0)
(1.01292 -0.0210279 0)
(1.01387 -0.0261033 0)
(1.01444 -0.0312418 0)
(1.01444 -0.0363544 0)
(1.01373 -0.0412585 0)
(1.01222 -0.0457737 0)
(1.00991 -0.0497222 0)
(1.00686 -0.052957 0)
(1.0032 -0.0553916 0)
(0.999117 -0.0569717 0)
(0.994804 -0.0576763 0)
(0.990441 -0.0575076 0)
(0.98619 -0.0565022 0)
(0.982276 -0.0546376 0)
(0.979053 -0.051902 0)
(0.977196 -0.0486399 0)
(0.977638 -0.0455321 0)
(0.980006 -0.0431698 0)
(0.980815 -0.041456 0)
(0.976948 -0.0398999 0)
(0.970503 -0.0385602 0)
(0.965296 -0.0375199 0)
(0.962033 -0.0365481 0)
(0.959943 -0.0355758 0)
(0.958509 -0.0346181 0)
(1.01075 -0.00215154 0)
(1.01141 -0.00747426 0)
(1.01252 -0.0120102 0)
(1.01388 -0.0171707 0)
(1.01533 -0.0223516 0)
(1.01662 -0.0278465 0)
(1.01753 -0.0334939 0)
(1.01782 -0.0392282 0)
(1.0173 -0.0448702 0)
(1.01583 -0.0502327 0)
(1.01338 -0.0551102 0)
(1.00999 -0.0593047 0)
(1.00581 -0.0626537 0)
(1.00102 -0.0650403 0)
(0.995823 -0.0664393 0)
(0.990358 -0.0669173 0)
(0.984793 -0.0666736 0)
(0.979341 -0.0661084 0)
(0.974125 -0.0655978 0)
(0.968802 -0.0651221 0)
(0.962242 -0.0641843 0)
(0.954145 -0.0622348 0)
(0.947562 -0.0593791 0)
(0.94619 -0.056411 0)
(0.948383 -0.0535687 0)
(0.949904 -0.0506809 0)
(0.949899 -0.0480081 0)
(0.949268 -0.0456773 0)
(0.948467 -0.043667 0)
(1.01219 -0.00225983 0)
(1.01296 -0.00782475 0)
(1.01427 -0.0125724 0)
(1.01589 -0.017988 0)
(1.01767 -0.0234443 0)
(1.01933 -0.0292881 0)
(1.02062 -0.0353737 0)
(1.02127 -0.0416676 0)
(1.02106 -0.0480048 0)
(1.01979 -0.0542006 0)
(1.01737 -0.0600285 0)
(1.01382 -0.0652511 0)
(1.00922 -0.0696596 0)
(1.00373 -0.0731033 0)
(0.997562 -0.0755188 0)
(0.990967 -0.0768735 0)
(0.984259 -0.0771279 0)
(0.977812 -0.0761703 0)
(0.972059 -0.0737925 0)
(0.967516 -0.0701349 0)
(0.965085 -0.065988 0)
(0.965247 -0.0624078 0)
(0.965361 -0.0599405 0)
(0.961067 -0.0579207 0)
(0.953124 -0.0558733 0)
(0.946326 -0.0541424 0)
(0.942093 -0.0525703 0)
(0.939263 -0.0509852 0)
(0.937187 -0.0494453 0)
(1.01355 -0.00235474 0)
(1.01443 -0.0081264 0)
(1.01592 -0.0130521 0)
(1.01779 -0.0186788 0)
(1.01989 -0.0243585 0)
(1.02192 -0.0304904 0)
(1.02363 -0.0369479 0)
(1.02472 -0.0437354 0)
(1.0249 -0.0507128 0)
(1.02395 -0.0577139 0)
(1.0217 -0.0645129 0)
(1.0181 -0.0708593 0)
(1.01318 -0.0765052 0)
(1.00709 -0.0812193 0)
(1.0001 -0.0848163 0)
(0.992481 -0.0871654 0)
(0.984521 -0.0882638 0)
(0.976454 -0.0883724 0)
(0.968454 -0.0880972 0)
(0.960459 -0.0879267 0)
(0.951819 -0.0875291 0)
(0.941836 -0.0859829 0)
(0.932447 -0.0827397 0)
(0.92801 -0.0786842 0)
(0.928621 -0.0748565 0)
(0.929343 -0.0710406 0)
(0.928245 -0.0673542 0)
(0.92656 -0.0641257 0)
(0.924883 -0.061313 0)
(1.01482 -0.00243902 0)
(1.0158 -0.00838983 0)
(1.01745 -0.0134676 0)
(1.01956 -0.0192708 0)
(1.02198 -0.025131 0)
(1.02439 -0.0314984 0)
(1.02653 -0.0382666 0)
(1.02808 -0.0454824 0)
(1.02873 -0.0530409 0)
(1.0282 -0.0608101 0)
(1.02626 -0.068582 0)
(1.02279 -0.0760998 0)
(1.0178 -0.0830698 0)
(1.0114 -0.0891824 0)
(1.00377 -0.0941786 0)
(0.995181 -0.097893 0)
(0.985926 -0.10026 0)
(0.976441 -0.101181 0)
(0.967337 -0.100348 0)
(0.959311 -0.0974811 0)
(0.953122 -0.0930185 0)
(0.949683 -0.0883403 0)
(0.947889 -0.0849049 0)
(0.943055 -0.0825173 0)
(0.93359 -0.0799038 0)
(0.924423 -0.077316 0)
(0.918549 -0.0750159 0)
(0.914548 -0.0726439 0)
(0.911454 -0.0703041 0)
(1.01601 -0.00251409 0)
(1.01707 -0.00862072 0)
(1.01888 -0.013829 0)
(1.02122 -0.0197802 0)
(1.02393 -0.0257851 0)
(1.02671 -0.0323421 0)
(1.02929 -0.0393653 0)
(1.03133 -0.0469442 0)
(1.03251 -0.0550155 0)
(1.0325 -0.06349 0)
(1.03104 -0.0721861 0)
(1.02794 -0.0808531 0)
(1.02313 -0.0891811 0)
(1.01662 -0.0968282 0)
(1.00852 -0.103476 0)
(0.999074 -0.108839 0)
(0.988656 -0.112695 0)
(0.977709 -0.114938 0)
(0.966581 -0.115874 0)
(0.955337 -0.116378 0)
(0.943677 -0.116885 0)
(0.931037 -0.116464 0)
(0.918209 -0.1137 0)
(0.909156 -0.108826 0)
(0.906392 -0.103775 0)
(0.905642 -0.0990014 0)
(0.903035 -0.0941492 0)
(0.899741 -0.0898015 0)
(0.896759 -0.0860121 0)
(1.0171 -0.00258057 0)
(1.01824 -0.00882188 0)
(1.0202 -0.0141419 0)
(1.02274 -0.0202166 0)
(1.02573 -0.0263356 0)
(1.02887 -0.0330421 0)
(1.03188 -0.0402682 0)
(1.03443 -0.0481443 0)
(1.03618 -0.0566507 0)
(1.03679 -0.0657457 0)
(1.03594 -0.0752878 0)
(1.03337 -0.0850577 0)
(1.02891 -0.0947618 0)
(1.02249 -0.104044 0)
(1.01415 -0.112515 0)
(1.00409 -0.119779 0)
(0.992649 -0.125541 0)
(0.980269 -0.129621 0)
(0.967534 -0.131754 0)
(0.955269 -0.131391 0)
(0.944445 -0.128239 0)
(0.936162 -0.12326 0)
(0.930694 -0.118674 0)
(0.924428 -0.115806 0)
(0.913339 -0.11302 0)
(0.900789 -0.109493 0)
(0.89201 -0.106213 0)
(0.886129 -0.102872 0)
(0.881434 -0.0994274 0)
(1.01811 -0.00263886 0)
(1.01932 -0.00899504 0)
(1.02141 -0.0144098 0)
(1.02414 -0.0205866 0)
(1.02739 -0.0267931 0)
(1.03086 -0.0336138 0)
(1.03429 -0.0409952 0)
(1.03735 -0.0491049 0)
(1.03969 -0.0579672 0)
(1.04096 -0.0675931 0)
(1.04079 -0.0778931 0)
(1.03887 -0.0886959 0)
(1.03496 -0.0997368 0)
(1.0289 -0.110657 0)
(1.02066 -0.121027 0)
(1.01033 -0.13039 0)
(0.998166 -0.13834 0)
(0.984639 -0.144524 0)
(0.970282 -0.148689 0)
(0.955398 -0.151242 0)
(0.939892 -0.15326 0)
(0.92357 -0.154787 0)
(0.906544 -0.153957 0)
(0.89146 -0.149295 0)
(0.882843 -0.142859 0)
(0.879238 -0.13689 0)
(0.874718 -0.130762 0)
(0.869041 -0.124867 0)
(0.864086 -0.119744 0)
(1.01903 -0.00268937 0)
(1.02031 -0.00914191 0)
(1.02252 -0.0146358 0)
(1.02542 -0.0208958 0)
(1.02891 -0.0271671 0)
(1.03269 -0.0340718 0)
(1.03651 -0.0415665 0)
(1.04006 -0.0498521 0)
(1.043 -0.0589963 0)
(1.04494 -0.0690629 0)
(1.04552 -0.0800186 0)
(1.04437 -0.0917453 0)
(1.04122 -0.104018 0)
(1.03581 -0.116503 0)
(1.02799 -0.128785 0)
(1.01771 -0.140366 0)
(1.00515 -0.150753 0)
(0.990688 -0.159507 0)
(0.974814 -0.166209 0)
(0.958207 -0.170294 0)
(0.942034 -0.170887 0)
(0.927727 -0.167739 0)
(0.916466 -0.162796 0)
(0.90682 -0.159286 0)
(0.893649 -0.156846 0)
(0.876781 -0.152803 0)
(0.86295 -0.148183 0)
(0.853819 -0.143658 0)
(0.846579 -0.138701 0)
(1.01989 -0.0027326 0)
(1.02122 -0.00926433 0)
(1.02354 -0.0148233 0)
(1.0266 -0.0211497 0)
(1.0303 -0.0274668 0)
(1.03436 -0.0344303 0)
(1.03855 -0.0420023 0)
(1.04257 -0.0504131 0)
(1.04608 -0.0597702 0)
(1.04871 -0.0701864 0)
(1.05009 -0.0816832 0)
(1.04982 -0.0942007 0)
(1.04757 -0.10757 0)
(1.043 -0.121514 0)
(1.03585 -0.135654 0)
(1.02595 -0.149489 0)
(1.01336 -0.162461 0)
(0.998373 -0.174031 0)
(0.981433 -0.183603 0)
(0.963009 -0.190759 0)
(0.94333 -0.196134 0)
(0.922356 -0.200849 0)
(0.900122 -0.203798 0)
(0.877816 -0.201744 0)
(0.860352 -0.194821 0)
(0.850849 -0.187285 0)
(0.843491 -0.179945 0)
(0.83435 -0.172012 0)
(0.826065 -0.164848 0)
(1.02068 -0.00276911 0)
(1.02206 -0.00936447 0)
(1.02448 -0.014976 0)
(1.02767 -0.0213542 0)
(1.03157 -0.0277015 0)
(1.03589 -0.0347032 0)
(1.04042 -0.0423222 0)
(1.04487 -0.0508141 0)
(1.04894 -0.0603212 0)
(1.05226 -0.0710004 0)
(1.05444 -0.0829263 0)
(1.0551 -0.0961022 0)
(1.05382 -0.110428 0)
(1.05023 -0.125687 0)
(1.04398 -0.141557 0)
(1.03482 -0.157566 0)
(1.02265 -0.173134 0)
(1.00761 -0.18767 0)
(0.99003 -0.200555 0)
(0.970252 -0.211065 0)
(0.949069 -0.218186 0)
(0.928194 -0.220512 0)
(0.909399 -0.217976 0)
(0.893337 -0.214256 0)
(0.876505 -0.212661 0)
(0.854679 -0.20979 0)
(0.832822 -0.203981 0)
(0.817433 -0.197927 0)
(0.805914 -0.191148 0)
(1.0214 -0.00279954 0)
(1.02283 -0.00944471 0)
(1.02534 -0.0150979 0)
(1.02865 -0.0215153 0)
(1.03273 -0.0278801 0)
(1.03729 -0.0349032 0)
(1.04212 -0.042544 0)
(1.04699 -0.0510804 0)
(1.05158 -0.0606832 0)
(1.05555 -0.0715496 0)
(1.05852 -0.0838044 0)
(1.06009 -0.0975129 0)
(1.05984 -0.112642 0)
(1.05735 -0.12904 0)
(1.05223 -0.14645 0)
(1.04411 -0.164467 0)
(1.03275 -0.182542 0)
(1.01813 -0.200082 0)
(1.00045 -0.216438 0)
(0.979907 -0.230769 0)
(0.956736 -0.242525 0)
(0.931124 -0.252572 0)
(0.903091 -0.261593 0)
(0.872934 -0.266423 0)
(0.843901 -0.262736 0)
(0.823165 -0.253973 0)
(0.810028 -0.245498 0)
(0.796057 -0.23576 0)
(0.781863 -0.225602 0)
(1.02206 -0.00282457 0)
(1.02354 -0.00950762 0)
(1.02613 -0.0151933 0)
(1.02955 -0.021639 0)
(1.03379 -0.0280113 0)
(1.03855 -0.0350428 0)
(1.04367 -0.0426853 0)
(1.04891 -0.0512367 0)
(1.05398 -0.0608913 0)
(1.05857 -0.0718811 0)
(1.0623 -0.0843764 0)
(1.06477 -0.0984976 0)
(1.06558 -0.114275 0)
(1.06428 -0.131622 0)
(1.06041 -0.150361 0)
(1.05355 -0.170175 0)
(1.04332 -0.190585 0)
(1.02958 -0.211031 0)
(1.01238 -0.230908 0)
(0.991717 -0.249408 0)
(0.967666 -0.265415 0)
(0.941266 -0.277161 0)
(0.914525 -0.282315 0)
(0.88921 -0.281667 0)
(0.865615 -0.28152 0)
(0.838455 -0.282642 0)
(0.806117 -0.278327 0)
(0.778751 -0.270635 0)
(0.759377 -0.262198 0)
(1.02267 -0.0028449 0)
(1.02418 -0.00955575 0)
(1.02685 -0.0152662 0)
(1.03036 -0.0217313 0)
(1.03475 -0.0281033 0)
(1.0397 -0.035133 0)
(1.04507 -0.0427616 0)
(1.05065 -0.0513055 0)
(1.05617 -0.0609768 0)
(1.06133 -0.0720367 0)
(1.06578 -0.0846946 0)
(1.06914 -0.0991188 0)
(1.07101 -0.115399 0)
(1.07091 -0.133518 0)
(1.06837 -0.153371 0)
(1.0629 -0.174738 0)
(1.05407 -0.197231 0)
(1.04163 -0.220362 0)
(1.02548 -0.243613 0)
(1.00542 -0.266229 0)
(0.981187 -0.287125 0)
(0.952711 -0.305787 0)
(0.919846 -0.323446 0)
(0.882424 -0.339614 0)
(0.841471 -0.347072 0)
(0.803651 -0.34165 0)
(0.77733 -0.332259 0)
(0.756228 -0.322464 0)
(0.732773 -0.309151 0)
(1.02322 -0.00286122 0)
(1.02477 -0.00959155 0)
(1.0275 -0.0153204 0)
(1.0311 -0.0217977 0)
(1.03562 -0.0281635 0)
(1.04073 -0.035184 0)
(1.04634 -0.0427873 0)
(1.05222 -0.0513066 0)
(1.05815 -0.0609669 0)
(1.06384 -0.0720531 0)
(1.06897 -0.0848082 0)
(1.07318 -0.0994424 0)
(1.07606 -0.116101 0)
(1.07714 -0.134829 0)
(1.07594 -0.155589 0)
(1.07195 -0.178249 0)
(1.06471 -0.202527 0)
(1.0539 -0.228049 0)
(1.03928 -0.25441 0)
(1.02047 -0.281027 0)
(0.996955 -0.306979 0)
(0.968612 -0.330778 0)
(0.936498 -0.349493 0)
(0.902413 -0.359448 0)
(0.868399 -0.363335 0)
(0.833817 -0.370626 0)
(0.791295 -0.375442 0)
(0.744842 -0.368929 0)
(0.70929 -0.359195 0)
(1.02372 -0.00287416 0)
(1.02529 -0.00961726 0)
(1.02808 -0.0153596 0)
(1.03175 -0.0218431 0)
(1.0364 -0.0281985 0)
(1.04165 -0.0352043 0)
(1.04747 -0.0427741 0)
(1.05363 -0.0512565 0)
(1.05993 -0.0608844 0)
(1.06612 -0.0719627 0)
(1.07188 -0.0847628 0)
(1.07687 -0.0995316 0)
(1.08071 -0.116461 0)
(1.08293 -0.135653 0)
(1.08306 -0.157127 0)
(1.08058 -0.180827 0)
(1.07504 -0.206582 0)
(1.06607 -0.234152 0)
(1.05337 -0.263266 0)
(1.03639 -0.293492 0)
(1.01451 -0.324086 0)
(0.987026 -0.353926 0)
(0.952945 -0.382765 0)
(0.911575 -0.41275 0)
(0.862476 -0.441336 0)
(0.806359 -0.45364 0)
(0.75506 -0.447063 0)
(0.718301 -0.438629 0)
(0.683003 -0.425735 0)
(1.02416 -0.00288433 0)
(1.02576 -0.00963492 0)
(1.02861 -0.0153866 0)
(1.03234 -0.021872 0)
(1.0371 -0.0282142 0)
(1.04247 -0.0352015 0)
(1.04848 -0.0427323 0)
(1.05489 -0.0511695 0)
(1.06153 -0.0607496 0)
(1.06816 -0.0717946 0)
(1.0745 -0.0845999 0)
(1.08021 -0.099443 0)
(1.08494 -0.116555 0)
(1.08826 -0.136083 0)
(1.08967 -0.158099 0)
(1.0887 -0.182614 0)
(1.08487 -0.209557 0)
(1.07786 -0.238815 0)
(1.06733 -0.270265 0)
(1.05263 -0.303628 0)
(1.03299 -0.338487 0)
(1.00761 -0.374217 0)
(0.975596 -0.40898 0)
(0.937566 -0.438173 0)
(0.894899 -0.456299 0)
(0.849519 -0.470236 0)
(0.798272 -0.492529 0)
(0.731067 -0.502223 0)
(0.662934 -0.491997 0)
(1.02456 -0.00289221 0)
(1.02619 -0.00964626 0)
(1.02907 -0.0154042 0)
(1.03287 -0.021888 0)
(1.03772 -0.0282153 0)
(1.04321 -0.0351817 0)
(1.04938 -0.0426706 0)
(1.05601 -0.0510574 0)
(1.06295 -0.0605794 0)
(1.06998 -0.0715729 0)
(1.07684 -0.0843531 0)
(1.08322 -0.0992226 0)
(1.08878 -0.116443 0)
(1.09312 -0.136202 0)
(1.09576 -0.158616 0)
(1.09622 -0.183751 0)
(1.09408 -0.211619 0)
(1.08904 -0.242211 0)
(1.08083 -0.275559 0)
(1.06872 -0.311558 0)
(1.05185 -0.349975 0)
(1.02956 -0.390562 0)
(1.00026 -0.432526 0)
(0.960918 -0.476247 0)
(0.910807 -0.526814 0)
(0.848102 -0.578876 0)
(0.768191 -0.601089 0)
(0.691141 -0.594708 0)
(0.633624 -0.587916 0)
(1.02492 -0.00289825 0)
(1.02656 -0.00965278 0)
(1.02949 -0.0154145 0)
(1.03334 -0.0218945 0)
(1.03827 -0.0282061 0)
(1.04385 -0.0351501 0)
(1.05017 -0.042596 0)
(1.05699 -0.05093 0)
(1.0642 -0.0603877 0)
(1.07159 -0.0713178 0)
(1.07892 -0.0840505 0)
(1.08591 -0.0989098 0)
(1.09224 -0.116182 0)
(1.09751 -0.136089 0)
(1.10129 -0.158782 0)
(1.10311 -0.184372 0)
(1.10258 -0.212937 0)
(1.09949 -0.244553 0)
(1.09358 -0.27937 0)
(1.08425 -0.317481 0)
(1.07051 -0.35881 0)
(1.05164 -0.403488 0)
(1.02662 -0.451937 0)
(0.9933 -0.502531 0)
(0.950589 -0.547788 0)
(0.898488 -0.578947 0)
(0.838943 -0.615654 0)
(0.758795 -0.672515 0)
(0.641486 -0.685243 0)
(1.02523 -0.0029028 0)
(1.0269 -0.00965568 0)
(1.02986 -0.0154193 0)
(1.03375 -0.0218938 0)
(1.03876 -0.0281895 0)
(1.04443 -0.0351107 0)
(1.05088 -0.0425141 0)
(1.05787 -0.0507948 0)
(1.06531 -0.0601852 0)
(1.07301 -0.0710446 0)
(1.08077 -0.0837144 0)
(1.08831 -0.0985367 0)
(1.09532 -0.115818 0)
(1.10145 -0.135807 0)
(1.10627 -0.158685 0)
(1.10935 -0.184593 0)
(1.11035 -0.213662 0)
(1.1091 -0.246039 0)
(1.10542 -0.281945 0)
(1.09884 -0.321642 0)
(1.08849 -0.365289 0)
(1.07341 -0.413038 0)
(1.05336 -0.465764 0)
(1.02624 -0.52429 0)
(0.984096 -0.58952 0)
(0.926504 -0.67412 0)
(0.854194 -0.777719 0)
(0.731458 -0.830049 0)
(0.578489 -0.821341 0)
(1.02551 -0.00290618 0)
(1.0272 -0.00965598 0)
(1.03019 -0.0154201 0)
(1.03412 -0.0218882 0)
(1.03918 -0.0281683 0)
(1.04493 -0.035067 0)
(1.05149 -0.0424293 0)
(1.05863 -0.0506577 0)
(1.06628 -0.0599806 0)
(1.07427 -0.0707659 0)
(1.0824 -0.0833636 0)
(1.09043 -0.098131 0)
(1.09806 -0.115392 0)
(1.10496 -0.135413 0)
(1.11073 -0.1584 0)
(1.11495 -0.184519 0)
(1.11736 -0.213937 0)
(1.11785 -0.246861 0)
(1.11626 -0.283551 0)
(1.11225 -0.324352 0)
(1.10531 -0.369702 0)
(1.09437 -0.419816 0)
(1.07884 -0.475527 0)
(1.05897 -0.540351 0)
(1.03138 -0.615165 0)
(0.989954 -0.68424 0)
(0.929232 -0.733329 0)
(0.854187 -0.831569 0)
(0.700592 -0.978353 0)
(1.02576 -0.00290862 0)
(1.02746 -0.00965445 0)
(1.03047 -0.015418 0)
(1.03445 -0.0218792 0)
(1.03956 -0.0281444 0)
(1.04538 -0.0350213 0)
(1.05204 -0.0423446 0)
(1.0593 -0.0505229 0)
(1.06714 -0.0597798 0)
(1.07537 -0.0704906 0)
(1.08383 -0.0830116 0)
(1.09229 -0.0977124 0)
(1.10048 -0.11493 0)
(1.10807 -0.134948 0)
(1.11468 -0.157988 0)
(1.11995 -0.184233 0)
(1.12362 -0.213877 0)
(1.1257 -0.247171 0)
(1.12607 -0.284406 0)
(1.12441 -0.325928 0)
(1.12062 -0.37237 0)
(1.11392 -0.424235 0)
(1.10319 -0.481902 0)
(1.09049 -0.548902 0)
(1.07532 -0.62959 0)
(1.03864 -0.719591 0)
(0.980528 -0.851915 0)
(0.917681 -1.08563 0)
(0.661536 -1.17752 0)
(0.999059 -0.00178125 0)
(0.999311 -0.00172507 0)
(0.999492 -0.00167012 0)
(0.999608 -0.00161638 0)
(0.99966 -0.00156335 0)
(0.999639 -0.00150989 0)
(0.999529 -0.00145445 0)
(0.999307 -0.0013951 0)
(0.998938 -0.00132952 0)
(0.998383 -0.00125515 0)
(0.9976 -0.00116939 0)
(0.996549 -0.00106996 0)
(0.995201 -0.000955161 0)
(0.993548 -0.000824271 0)
(0.991613 -0.000677755 0)
(0.989457 -0.000517304 0)
(0.987185 -0.000345664 0)
(0.984937 -0.000166235 0)
(0.982882 1.7452e-05 0)
(0.998927 -0.000762124 0)
(0.998713 -0.000560083 0)
(0.998562 -0.000349848 0)
(0.998456 -0.000132052 0)
(0.998385 9.37782e-05 0)
(0.998347 0.00032756 0)
(0.998344 0.000568595 0)
(0.998393 0.000815609 0)
(0.998516 0.00106655 0)
(0.998749 0.00131848 0)
(0.99914 0.00156763 0)
(0.999739 0.00180946 0)
(1.0006 0.00203893 0)
(1.00175 0.00225078 0)
(1.00322 0.00243995 0)
(1.00497 0.00260177 0)
(1.00693 0.00273227 0)
(1.00897 0.00282825 0)
(1.01093 0.00288739 0)
(0.992338 -0.0059629 0)
(0.992412 -0.00554015 0)
(0.992405 -0.00511313 0)
(0.99233 -0.00468257 0)
(0.992195 -0.00425013 0)
(0.992006 -0.0038174 0)
(0.99176 -0.00338653 0)
(0.991452 -0.0029604 0)
(0.991072 -0.00254253 0)
(0.990606 -0.00213698 0)
(0.990036 -0.0017482 0)
(0.989344 -0.00138072 0)
(0.988514 -0.00103871 0)
(0.987542 -0.000725402 0)
(0.986439 -0.000442319 0)
(0.985248 -0.000188429 0)
(0.984038 4.0658e-05 0)
(0.982908 0.00025321 0)
(0.981977 0.000461329 0)
(0.988969 -0.0106801 0)
(0.988647 -0.0103194 0)
(0.988391 -0.00995588 0)
(0.988191 -0.00959204 0)
(0.988048 -0.00922814 0)
(0.987972 -0.00886459 0)
(0.98798 -0.00850179 0)
(0.988101 -0.00813968 0)
(0.98837 -0.00777755 0)
(0.988831 -0.00741367 0)
(0.98953 -0.00704489 0)
(0.990512 -0.00666635 0)
(0.991806 -0.00627133 0)
(0.99342 -0.00585147 0)
(0.995319 -0.00539753 0)
(0.997417 -0.00490078 0)
(0.999575 -0.00435491 0)
(1.0016 -0.00375818 0)
(1.00329 -0.00311506 0)
(0.98143 -0.0180483 0)
(0.981444 -0.0173281 0)
(0.981399 -0.0166 0)
(0.981312 -0.015865 0)
(0.981193 -0.0151248 0)
(0.981044 -0.01438 0)
(0.98086 -0.0136305 0)
(0.98063 -0.0128762 0)
(0.980329 -0.0121168 0)
(0.979926 -0.0113521 0)
(0.979376 -0.0105825 0)
(0.978629 -0.00980947 0)
(0.977639 -0.00903592 0)
(0.976374 -0.0082666 0)
(0.974837 -0.00750776 0)
(0.973081 -0.00676615 0)
(0.971221 -0.00604741 0)
(0.969432 -0.00535388 0)
(0.967928 -0.00468278 0)
(0.97503 -0.0226336 0)
(0.974532 -0.0220765 0)
(0.974117 -0.0215027 0)
(0.973766 -0.0209157 0)
(0.973474 -0.0203146 0)
(0.97324 -0.019699 0)
(0.973077 -0.0190681 0)
(0.973002 -0.0184209 0)
(0.973046 -0.0177558 0)
(0.97325 -0.0170705 0)
(0.973667 -0.016362 0)
(0.974352 -0.0156256 0)
(0.975357 -0.0148552 0)
(0.976711 -0.0140424 0)
(0.978401 -0.0131777 0)
(0.980351 -0.0122511 0)
(0.982408 -0.0112548 0)
(0.984349 -0.0101862 0)
(0.985912 -0.00905075 0)
(0.966951 -0.0295405 0)
(0.966667 -0.028435 0)
(0.966345 -0.0273093 0)
(0.965998 -0.0261645 0)
(0.965632 -0.0250031 0)
(0.965243 -0.0238262 0)
(0.964822 -0.0226346 0)
(0.964352 -0.0214292 0)
(0.963802 -0.0202109 0)
(0.963132 -0.0189808 0)
(0.962286 -0.0177404 0)
(0.9612 -0.0164926 0)
(0.959806 -0.015242 0)
(0.958052 -0.0139959 0)
(0.955928 -0.0127643 0)
(0.953494 -0.0115593 0)
(0.950899 -0.0103926 0)
(0.948389 -0.00927201 0)
(0.946276 -0.00819806 0)
(0.957458 -0.0336948 0)
(0.956593 -0.0327794 0)
(0.955815 -0.031831 0)
(0.955106 -0.0308545 0)
(0.954456 -0.0298491 0)
(0.953865 -0.0288147 0)
(0.953339 -0.027752 0)
(0.952894 -0.0266616 0)
(0.952556 -0.0255443 0)
(0.952366 -0.024401 0)
(0.952378 -0.0232321 0)
(0.952662 -0.0220371 0)
(0.95329 -0.0208133 0)
(0.954321 -0.0195545 0)
(0.955774 -0.0182506 0)
(0.957596 -0.0168873 0)
(0.95963 -0.0154481 0)
(0.961616 -0.0139191 0)
(0.963218 -0.0122948 0)
(0.947665 -0.0419335 0)
(0.946871 -0.0403018 0)
(0.946059 -0.0386363 0)
(0.945242 -0.0369383 0)
(0.944428 -0.0352109 0)
(0.943616 -0.0334557 0)
(0.942801 -0.0316737 0)
(0.941971 -0.0298662 0)
(0.941102 -0.0280341 0)
(0.940156 -0.0261784 0)
(0.939077 -0.0243 0)
(0.937791 -0.0224008 0)
(0.93621 -0.0204849 0)
(0.934243 -0.01856 0)
(0.931833 -0.0166397 0)
(0.928993 -0.0147436 0)
(0.925853 -0.0128963 0)
(0.922685 -0.011122 0)
(0.919888 -0.00943641 0)
(0.935579 -0.0479771 0)
(0.934196 -0.0465274 0)
(0.932903 -0.0450254 0)
(0.931684 -0.0434785 0)
(0.930531 -0.0418871 0)
(0.929442 -0.0402522 0)
(0.928422 -0.0385758 0)
(0.927481 -0.03686 0)
(0.926641 -0.0351075 0)
(0.925937 -0.0333213 0)
(0.925419 -0.0315047 0)
(0.925161 -0.0296605 0)
(0.925254 -0.0277902 0)
(0.925798 -0.0258911 0)
(0.926869 -0.023954 0)
(0.928478 -0.0219602 0)
(0.930512 -0.0198818 0)
(0.932701 -0.0176863 0)
(0.934627 -0.0153476 0)
(0.923331 -0.0588591 0)
(0.921858 -0.0565334 0)
(0.92039 -0.0541481 0)
(0.918943 -0.0517062 0)
(0.917527 -0.0492112 0)
(0.916146 -0.0466639 0)
(0.9148 -0.0440654 0)
(0.913484 -0.041417 0)
(0.912184 -0.0387201 0)
(0.910875 -0.0359764 0)
(0.909512 -0.0331878 0)
(0.908025 -0.030357 0)
(0.906318 -0.0274886 0)
(0.904266 -0.0245912 0)
(0.901746 -0.0216817 0)
(0.898679 -0.0187886 0)
(0.895109 -0.0159542 0)
(0.891273 -0.01323 0)
(0.887643 -0.0106633 0)
(0.908993 -0.0680784 0)
(0.906831 -0.0658689 0)
(0.904778 -0.0635652 0)
(0.902821 -0.0611813 0)
(0.900951 -0.0587241 0)
(0.899169 -0.0562016 0)
(0.89748 -0.053623 0)
(0.895895 -0.0509977 0)
(0.894431 -0.0483355 0)
(0.893117 -0.0456461 0)
(0.891998 -0.0429393 0)
(0.891142 -0.0402245 0)
(0.890647 -0.0375096 0)
(0.890642 -0.0347988 0)
(0.891269 -0.0320871 0)
(0.89264 -0.0293545 0)
(0.894749 -0.0265589 0)
(0.897382 -0.0236359 0)
(0.900048 -0.0205131 0)
(0.894098 -0.0826527 0)
(0.891631 -0.0794482 0)
(0.889224 -0.0761465 0)
(0.886898 -0.0727563 0)
(0.884671 -0.0692822 0)
(0.882553 -0.0657257 0)
(0.880551 -0.0620886 0)
(0.878666 -0.058373 0)
(0.876895 -0.0545811 0)
(0.875221 -0.0507156 0)
(0.873614 -0.0467791 0)
(0.872017 -0.0427739 0)
(0.870335 -0.0387028 0)
(0.868423 -0.0345709 0)
(0.86609 -0.0303906 0)
(0.86313 -0.0261893 0)
(0.859407 -0.0220208 0)
(0.854998 -0.0179693 0)
(0.850349 -0.0141391 0)
(0.877666 -0.0961438 0)
(0.874356 -0.0928502 0)
(0.871222 -0.0893818 0)
(0.868255 -0.085768 0)
(0.865453 -0.0820282 0)
(0.862818 -0.0781849 0)
(0.860358 -0.0742615 0)
(0.858081 -0.0702814 0)
(0.855999 -0.0662682 0)
(0.854131 -0.0622448 0)
(0.852504 -0.0582333 0)
(0.851164 -0.0542549 0)
(0.850188 -0.0503292 0)
(0.849698 -0.0464728 0)
(0.849873 -0.042695 0)
(0.850928 -0.038988 0)
(0.85304 -0.0353112 0)
(0.856188 -0.031574 0)
(0.859946 -0.0276346 0)
(0.85979 -0.115111 0)
(0.855859 -0.110638 0)
(0.852101 -0.105999 0)
(0.848545 -0.101207 0)
(0.845219 -0.0962737 0)
(0.842144 -0.0912071 0)
(0.839332 -0.0860151 0)
(0.836793 -0.0807071 0)
(0.834523 -0.0752919 0)
(0.832515 -0.0697783 0)
(0.830743 -0.0641741 0)
(0.829162 -0.0584856 0)
(0.827688 -0.0527178 0)
(0.826182 -0.046875 0)
(0.824424 -0.0409646 0)
(0.8221 -0.035006 0)
(0.818844 -0.0290518 0)
(0.814398 -0.0232117 0)
(0.808927 -0.0176672 0)
(0.840684 -0.133851 0)
(0.835578 -0.128924 0)
(0.830787 -0.123635 0)
(0.826326 -0.118065 0)
(0.822207 -0.112246 0)
(0.818437 -0.106228 0)
(0.815033 -0.100061 0)
(0.812002 -0.0937924 0)
(0.809351 -0.0874754 0)
(0.807086 -0.0811623 0)
(0.805215 -0.0749075 0)
(0.803753 -0.0687656 0)
(0.802738 -0.0627916 0)
(0.802252 -0.0570387 0)
(0.802448 -0.0515549 0)
(0.803589 -0.046376 0)
(0.80603 -0.0414996 0)
(0.810086 -0.0368522 0)
(0.815695 -0.0322388 0)
(0.819141 -0.158299 0)
(0.812813 -0.151767 0)
(0.806865 -0.144903 0)
(0.801343 -0.137698 0)
(0.796296 -0.130195 0)
(0.791775 -0.122427 0)
(0.787805 -0.114433 0)
(0.784411 -0.106258 0)
(0.781601 -0.0979459 0)
(0.779373 -0.0895423 0)
(0.777709 -0.0810858 0)
(0.776569 -0.07261 0)
(0.77588 -0.0641403 0)
(0.775516 -0.0556932 0)
(0.775263 -0.0472804 0)
(0.774763 -0.0389091 0)
(0.773461 -0.0306202 0)
(0.770674 -0.022518 0)
(0.765839 -0.0148309 0)
(0.796241 -0.183923 0)
(0.78796 -0.176467 0)
(0.78026 -0.168224 0)
(0.773187 -0.159376 0)
(0.766825 -0.15 0)
(0.7612 -0.140184 0)
(0.756368 -0.130037 0)
(0.75235 -0.119657 0)
(0.749166 -0.109158 0)
(0.746815 -0.0986573 0)
(0.745288 -0.0882789 0)
(0.744564 -0.0781537 0)
(0.74463 -0.068419 0)
(0.745493 -0.0592191 0)
(0.747226 -0.0506941 0)
(0.750026 -0.0429916 0)
(0.754318 -0.036201 0)
(0.760684 -0.0303482 0)
(0.769802 -0.0253125 0)
(0.770228 -0.216305 0)
(0.759632 -0.206559 0)
(0.749687 -0.196003 0)
(0.740623 -0.184658 0)
(0.732485 -0.172571 0)
(0.72543 -0.15988 0)
(0.719512 -0.146686 0)
(0.714808 -0.133135 0)
(0.711345 -0.119369 0)
(0.709146 -0.105536 0)
(0.708199 -0.0917765 0)
(0.708466 -0.0782206 0)
(0.709873 -0.0649764 0)
(0.712291 -0.0521204 0)
(0.715499 -0.0397106 0)
(0.719136 -0.0277302 0)
(0.722481 -0.0162188 0)
(0.724616 -0.0052478 0)
(0.723886 0.0050503 0)
(0.743052 -0.251849 0)
(0.728785 -0.240573 0)
(0.715721 -0.227763 0)
(0.703742 -0.213526 0)
(0.693189 -0.198173 0)
(0.684124 -0.181824 0)
(0.676709 -0.164725 0)
(0.671007 -0.147089 0)
(0.667094 -0.129156 0)
(0.664977 -0.111168 0)
(0.664649 -0.0933832 0)
(0.66606 -0.0760679 0)
(0.669137 -0.0595054 0)
(0.673786 -0.0440103 0)
(0.679947 -0.0298834 0)
(0.687606 -0.0175556 0)
(0.697247 -0.00729962 0)
(0.709257 0.000627601 0)
(0.72521 0.00587931 0)
(0.712185 -0.295994 0)
(0.694022 -0.281891 0)
(0.676671 -0.265548 0)
(0.661085 -0.247566 0)
(0.647288 -0.227851 0)
(0.635632 -0.206792 0)
(0.626231 -0.184649 0)
(0.619265 -0.161742 0)
(0.614773 -0.138396 0)
(0.612825 -0.114943 0)
(0.61341 -0.0917108 0)
(0.616496 -0.0690251 0)
(0.622004 -0.0472002 0)
(0.629798 -0.0264907 0)
(0.639622 -0.0071847 0)
(0.651227 0.0107844 0)
(0.663379 0.0272458 0)
(0.675486 0.0421918 0)
(0.684733 0.0560204 0)
(0.681788 -0.346213 0)
(0.656542 -0.329281 0)
(0.633789 -0.309713 0)
(0.613098 -0.287012 0)
(0.595142 -0.262014 0)
(0.580088 -0.235093 0)
(0.568246 -0.206681 0)
(0.559638 -0.17726 0)
(0.55443 -0.147249 0)
(0.552607 -0.117074 0)
(0.5542 -0.0871627 0)
(0.559174 -0.0579546 0)
(0.56747 -0.0299127 0)
(0.578957 -0.0036239 0)
(0.593565 0.0204594 0)
(0.610705 0.0412223 0)
(0.631548 0.0581909 0)
(0.655092 0.0703438 0)
(0.684013 0.0757206 0)
(0.646286 -0.406802 0)
(0.614513 -0.386847 0)
(0.584543 -0.361714 0)