/*--------------------------------*- C++ -*----------------------------------*\
  =========                 |
  \\      /  F ield         | OpenFOAM: The Open Source CFD Toolbox
   \\    /   O peration     | Website:  https://openfoam.org
    \\  /    A nd           | Version:  10
     \\/     M anipulation  |
\*---------------------------------------------------------------------------*/
FoamFile
{
    format      ascii;
    class       volVectorField;
    location    "0";
    object      U;
}
// * * * * * * * * * * * * * * * * * * * * * * * * * * * * * * * * * * * * * //

dimensions      [0 1 -1 0 0 0 0];

internalField   nonuniform List<vector> 
18483
(
(0.999995 -0.000213098 0)
(0.999995 -0.000759143 0)
(0.999995 -0.00120445 0)
(0.999995 -0.00167757 0)
(0.999995 -0.00211774 0)
(0.999995 -0.00253208 0)
(0.999996 -0.00290127 0)
(0.999996 -0.003214 0)
(0.999995 -0.003462 0)
(0.999993 -0.00364414 0)
(0.999988 -0.00376848 0)
(0.99998 -0.00385759 0)
(0.999968 -0.00394646 0)
(0.999951 -0.00408793 0)
(0.999925 -0.00433151 0)
(0.999862 -0.00468279 0)
(0.999623 -0.00507051 0)
(0.998709 -0.00537469 0)
(0.996136 -0.00548634 0)
(0.991462 -0.00533346 0)
(0.986693 -0.00501245 0)
(0.985238 -0.00466231 0)
(0.987686 -0.00426403 0)
(0.991504 -0.00380668 0)
(0.994626 -0.00336777 0)
(0.99663 -0.002996 0)
(0.997785 -0.00269362 0)
(0.998404 -0.0024513 0)
(0.9987 -0.00225721 0)
(1.00066 -0.00063559 0)
(1.00068 -0.00225642 0)
(1.00074 -0.00359155 0)
(1.00079 -0.00502648 0)
(1.00083 -0.00637546 0)
(1.00084 -0.00766555 0)
(1.00082 -0.00883369 0)
(1.00075 -0.00984328 0)
(1.00064 -0.0106601 0)
(1.00051 -0.0112676 0)
(1.00036 -0.0116638 0)
(1.00024 -0.0118537 0)
(1.00018 -0.011829 0)
(1.00022 -0.0115223 0)
(1.00034 -0.0108464 0)
(1.00048 -0.0097922 0)
(1.00064 -0.00851333 0)
(1.00113 -0.00728693 0)
(1.0029 -0.00641537 0)
(1.00668 -0.00617848 0)
(1.01082 -0.0064439 0)
(1.01165 -0.00675696 0)
(1.00828 -0.00697774 0)
(1.00376 -0.00718242 0)
(1.0005 -0.00733055 0)
(0.998691 -0.007386 0)
(0.997783 -0.00737218 0)
(0.997358 -0.00731351 0)
(0.997191 -0.00722996 0)
(1.0019 -0.0010004 0)
(1.00199 -0.00354527 0)
(1.00217 -0.00567704 0)
(1.00235 -0.00801148 0)
(1.00251 -0.0102519 0)
(1.00259 -0.0124517 0)
(1.00257 -0.0145001 0)
(1.00242 -0.0163319 0)
(1.00215 -0.0178746 0)
(1.00175 -0.0190787 0)
(1.00125 -0.0199153 0)
(1.00069 -0.020374 0)
(1.0001 -0.0204771 0)
(0.999468 -0.0203262 0)
(0.998757 -0.0201412 0)
(0.99795 -0.0201196 0)
(0.997076 -0.0202371 0)
(0.996014 -0.0202799 0)
(0.994157 -0.0200116 0)
(0.990714 -0.0193129 0)
(0.986462 -0.0183021 0)
(0.984373 -0.017358 0)
(0.985945 -0.0166061 0)
(0.988949 -0.0157991 0)
(0.991168 -0.0149392 0)
(0.992417 -0.0141453 0)
(0.993109 -0.0134449 0)
(0.993505 -0.0128422 0)
(0.993731 -0.0123318 0)
(1.00339 -0.00129736 0)
(1.00359 -0.00459433 0)
(1.00394 -0.0074058 0)
(1.00431 -0.0105464 0)
(1.00466 -0.0136313 0)
(1.00489 -0.0167434 0)
(1.00493 -0.0197297 0)
(1.00474 -0.0224977 0)
(1.0043 -0.024934 0)
(1.0036 -0.0269558 0)
(1.00269 -0.0285155 0)
(1.00159 -0.0296064 0)
(1.00038 -0.0302604 0)
(0.999114 -0.0305309 0)
(0.997857 -0.0303809 0)
(0.996682 -0.0296389 0)
(0.995649 -0.0282738 0)
(0.995077 -0.0265464 0)
(0.996008 -0.0248139 0)
(0.999699 -0.0233017 0)
(1.00496 -0.0221256 0)
(1.00724 -0.0211724 0)
(1.00407 -0.0203435 0)
(0.998626 -0.0198501 0)
(0.994456 -0.0196222 0)
(0.991961 -0.0194225 0)
(0.990478 -0.0191903 0)
(0.989562 -0.0189214 0)
(0.988977 -0.0186263 0)
(1.00494 -0.00153802 0)
(1.00526 -0.00544339 0)
(1.00582 -0.00882525 0)
(1.00644 -0.0126703 0)
(1.00706 -0.0165275 0)
(1.00751 -0.0205109 0)
(1.00771 -0.024435 0)
(1.00757 -0.0281826 0)
(1.00704 -0.0315957 0)
(1.00612 -0.0345501 0)
(1.00486 -0.0369548 0)
(1.00333 -0.0387638 0)
(1.00162 -0.0399678 0)
(0.999842 -0.0406055 0)
(0.998036 -0.0408109 0)
(0.996205 -0.0408893 0)
(0.994303 -0.0411444 0)
(0.992173 -0.0415509 0)
(0.989074 -0.041747 0)
(0.983882 -0.0413775 0)
(0.977362 -0.0403305 0)
(0.973662 -0.0388865 0)
(0.97555 -0.0374128 0)
(0.979784 -0.0358244 0)
(0.982508 -0.0341469 0)
(0.983592 -0.0326406 0)
(0.983942 -0.0313624 0)
(0.983978 -0.0302941 0)
(0.983878 -0.0294126 0)
(1.00649 -0.00173606 0)
(1.00696 -0.00613829 0)
(1.00776 -0.00999653 0)
(1.0087 -0.014446 0)
(1.00965 -0.0189873 0)
(1.01044 -0.0237696 0)
(1.0109 -0.0285861 0)
(1.01092 -0.033303 0)
(1.0104 -0.0377216 0)
(1.00932 -0.0416741 0)
(1.00772 -0.0450196 0)
(1.00567 -0.0476704 0)
(1.0033 -0.0496023 0)
(1.0007 -0.0508452 0)
(0.998011 -0.0514139 0)
(0.995351 -0.0512362 0)
(0.992855 -0.0501224 0)
(0.990718 -0.04809 0)
(0.989778 -0.0456175 0)
(0.991679 -0.0432918 0)
(0.996265 -0.0415584 0)
(0.998727 -0.0403818 0)
(0.994862 -0.0393647 0)
(0.987858 -0.0385906 0)
(0.982772 -0.0381283 0)
(0.980007 -0.0376832 0)
(0.978344 -0.0371729 0)
(0.977246 -0.0366216 0)
(0.976476 -0.036045 0)
(1.00805 -0.00189873 0)
(1.00869 -0.00670391 0)
(1.00976 -0.0109549 0)
(1.01106 -0.0159124 0)
(1.01243 -0.0210433 0)
(1.01362 -0.0265392 0)
(1.01446 -0.0321848 0)
(1.01474 -0.0378428 0)
(1.01434 -0.0432853 0)
(1.01319 -0.048307 0)
(1.01132 -0.0527199 0)
(1.0088 -0.0563865 0)
(1.0058 -0.0592276 0)
(1.00247 -0.0612176 0)
(0.998987 -0.0623691 0)
(0.995415 -0.0628821 0)
(0.991741 -0.0632603 0)
(0.987836 -0.0639157 0)
(0.983202 -0.0646324 0)
(0.976661 -0.0647677 0)
(0.968251 -0.0638023 0)
(0.96218 -0.0618501 0)
(0.962905 -0.0596581 0)
(0.96745 -0.0574369 0)
(0.970167 -0.055049 0)
(0.970668 -0.0528299 0)
(0.970453 -0.0509269 0)
(0.969996 -0.0493038 0)
(0.969462 -0.0479453 0)
(1.0096 -0.00202836 0)
(1.01042 -0.00714938 0)
(1.01178 -0.011715 0)
(1.01347 -0.0170883 0)
(1.01529 -0.0227154 0)
(1.01697 -0.0288365 0)
(1.01826 -0.0352396 0)
(1.01893 -0.0417952 0)
(1.01878 -0.0482564 0)
(1.01772 -0.0543841 0)
(1.01573 -0.0599365 0)
(1.01288 -0.0647082 0)
(1.00934 -0.068547 0)
(1.0053 -0.0713898 0)
(1.00092 -0.0732463 0)
(0.996366 -0.0741259 0)
(0.991845 -0.0738635 0)
(0.987667 -0.0721798 0)
(0.984453 -0.0692957 0)
(0.983661 -0.0661181 0)
(0.98615 -0.0636438 0)
(0.988153 -0.0622929 0)
(0.983883 -0.0613379 0)
(0.975112 -0.0602987 0)
(0.968412 -0.0595352 0)
(0.964906 -0.058831 0)
(0.962675 -0.0579892 0)
(0.961075 -0.0570953 0)
(0.959882 -0.0561732 0)
(1.01111 -0.00212598 0)
(1.01211 -0.00747991 0)
(1.01376 -0.0122861 0)
(1.01585 -0.0179879 0)
(1.01815 -0.0240215 0)
(1.02036 -0.0306786 0)
(1.02219 -0.0377601 0)
(1.02335 -0.0451547 0)
(1.02358 -0.0526104 0)
(1.02273 -0.0598672 0)
(1.02073 -0.0666412 0)
(1.0176 -0.0726731 0)
(1.01348 -0.0777538 0)
(1.00857 -0.0817655 0)
(1.0031 -0.0846621 0)
(0.997293 -0.0864625 0)
(0.991296 -0.0874601 0)
(0.985085 -0.0883318 0)
(0.978416 -0.0895043 0)
(0.97055 -0.0904376 0)
(0.960924 -0.0900665 0)
(0.952296 -0.0878822 0)
(0.949956 -0.0848224 0)
(0.953145 -0.0818959 0)
(0.955259 -0.0788382 0)
(0.954677 -0.0758011 0)
(0.953485 -0.0731744 0)
(0.952253 -0.070895 0)
(0.951059 -0.0689489 0)
(1.01254 -0.0021936 0)
(1.0137 -0.00770361 0)
(1.01564 -0.0126821 0)
(1.01813 -0.0186314 0)
(1.02093 -0.0249864 0)
(1.0237 -0.0320911 0)
(1.02613 -0.0397679 0)
(1.02786 -0.0479346 0)
(1.02859 -0.0563509 0)
(1.02809 -0.0647544 0)
(1.02623 -0.0728338 0)
(1.02298 -0.080282 0)
(1.01846 -0.086815 0)
(1.01289 -0.0922108 0)
(1.00657 -0.0963351 0)
(0.999772 -0.0991283 0)
(0.992773 -0.1005 0)
(0.985976 -0.10017 0)
(0.979971 -0.0979733 0)
(0.975853 -0.0944908 0)
(0.97491 -0.0910787 0)
(0.975387 -0.0890271 0)
(0.971205 -0.0880237 0)
(0.961211 -0.0867102 0)
(0.952187 -0.0853641 0)
(0.947237 -0.0842622 0)
(0.943988 -0.0829508 0)
(0.941449 -0.0815431 0)
(0.939484 -0.0801249 0)
(1.01385 -0.0022346 0)
(1.01518 -0.00783282 0)
(1.0174 -0.0129225 0)
(1.02028 -0.0190464 0)
(1.02357 -0.0256437 0)
(1.02693 -0.0331103 0)
(1.03 -0.0412962 0)
(1.03238 -0.0501566 0)
(1.03374 -0.0594746 0)
(1.03376 -0.068998 0)
(1.03225 -0.0783975 0)
(1.02914 -0.0873204 0)
(1.0245 -0.095411 0)
(1.01848 -0.102354 0)
(1.01134 -0.107933 0)
(1.00338 -0.112042 0)
(0.994857 -0.114704 0)
(0.985981 -0.116418 0)
(0.976761 -0.118074 0)
(0.966903 -0.119877 0)
(0.955714 -0.120752 0)
(0.944228 -0.119307 0)
(0.937163 -0.115722 0)
(0.936904 -0.111862 0)
(0.937832 -0.108203 0)
(0.935939 -0.10431 0)
(0.933277 -0.100832 0)
(0.930918 -0.0978359 0)
(0.928752 -0.0952153 0)
(1.01505 -0.00225332 0)
(1.01654 -0.00788275 0)
(1.01902 -0.0130316 0)
(1.02228 -0.0192664 0)
(1.02606 -0.0260338 0)
(1.03001 -0.0337801 0)
(1.03375 -0.0423862 0)
(1.03685 -0.0518472 0)
(1.03894 -0.0619789 0)
(1.03964 -0.0725529 0)
(1.03868 -0.0832423 0)
(1.03589 -0.0936752 0)
(1.03125 -0.103459 0)
(1.02485 -0.112218 0)
(1.0169 -0.11965 0)
(1.00777 -0.125569 0)
(0.997891 -0.129839 0)
(0.98782 -0.13219 0)
(0.978354 -0.132154 0)
(0.970367 -0.129697 0)
(0.965016 -0.125859 0)
(0.962283 -0.122577 0)
(0.957654 -0.121106 0)
(0.947025 -0.119859 0)
(0.935096 -0.117866 0)
(0.927586 -0.116108 0)
(0.92281 -0.114227 0)
(0.918866 -0.112075 0)
(0.915747 -0.109954 0)
(1.01613 -0.00225442 0)
(1.01777 -0.00786975 0)
(1.0205 -0.0130348 0)
(1.02412 -0.0193269 0)
(1.02838 -0.0262003 0)
(1.03291 -0.0341494 0)
(1.03732 -0.0430865 0)
(1.04119 -0.0530476 0)
(1.04408 -0.063891 0)
(1.04556 -0.0754276 0)
(1.04527 -0.0873559 0)
(1.04298 -0.0993081 0)
(1.03857 -0.110866 0)
(1.03208 -0.121586 0)
(1.02371 -0.131034 0)
(1.01382 -0.138871 0)
(1.00289 -0.144843 0)
(0.991296 -0.148902 0)
(0.979222 -0.151793 0)
(0.966484 -0.154601 0)
(0.952789 -0.157071 0)
(0.938154 -0.15741 0)
(0.925558 -0.154251 0)
(0.919633 -0.149336 0)
(0.918184 -0.14485 0)
(0.914972 -0.140211 0)
(0.910318 -0.135672 0)
(0.906349 -0.131831 0)
(0.902862 -0.128403 0)
(1.0171 -0.0022424 0)
(1.01887 -0.00780951 0)
(1.02183 -0.012957 0)
(1.0258 -0.0192624 0)
(1.0305 -0.0261869 0)
(1.0356 -0.0342695 0)
(1.04069 -0.0434529 0)
(1.04533 -0.0538145 0)
(1.04905 -0.0652621 0)
(1.0514 -0.0776549 0)
(1.05194 -0.090728 0)
(1.05037 -0.104129 0)
(1.0465 -0.117423 0)
(1.04029 -0.130123 0)
(1.03181 -0.141723 0)
(1.02131 -0.151817 0)
(1.00919 -0.16015 0)
(0.995955 -0.166459 0)
(0.982358 -0.170269 0)
(0.969604 -0.170834 0)
(0.958936 -0.168166 0)
(0.951177 -0.164207 0)
(0.944319 -0.161796 0)
(0.933103 -0.160757 0)
(0.918162 -0.158521 0)
(0.906471 -0.155737 0)
(0.899197 -0.153089 0)
(0.893297 -0.149921 0)
(0.888464 -0.146717 0)
(1.01796 -0.00222114 0)
(1.01985 -0.00771575 0)
(1.02303 -0.0128202 0)
(1.02731 -0.019104 0)
(1.03244 -0.0260343 0)
(1.03808 -0.0341903 0)
(1.04382 -0.0435428 0)
(1.04922 -0.0542091 0)
(1.05382 -0.0661479 0)
(1.0571 -0.079269 0)
(1.0586 -0.0933521 0)
(1.05795 -0.108077 0)
(1.05486 -0.123028 0)
(1.04914 -0.137721 0)
(1.04075 -0.151624 0)
(1.02987 -0.164231 0)
(1.01694 -0.175104 0)
(1.00257 -0.183731 0)
(0.987231 -0.189906 0)
(0.971043 -0.194629 0)
(0.953723 -0.19909 0)
(0.935182 -0.202204 0)
(0.916773 -0.201188 0)
(0.903201 -0.195993 0)
(0.896852 -0.190185 0)
(0.89188 -0.184801 0)
(0.884779 -0.178937 0)
(0.878247 -0.173719 0)
(0.872819 -0.169104 0)
(1.01873 -0.00219379 0)
(1.02073 -0.00759973 0)
(1.0241 -0.0126428 0)
(1.02868 -0.018878 0)
(1.0342 -0.0257781 0)
(1.04034 -0.0339574 0)
(1.0467 -0.0434099 0)
(1.05286 -0.0542914 0)
(1.05832 -0.066609 0)
(1.06258 -0.0803246 0)
(1.06512 -0.0952731 0)
(1.06549 -0.111187 0)
(1.06331 -0.127693 0)
(1.05831 -0.14433 0)
(1.05037 -0.160533 0)
(1.03957 -0.17569 0)
(1.02628 -0.189266 0)
(1.0109 -0.200775 0)
(0.993878 -0.209736 0)
(0.976149 -0.215483 0)
(0.959426 -0.216986 0)
(0.945144 -0.214395 0)
(0.933259 -0.21101 0)
(0.92009 -0.209909 0)
(0.902296 -0.208468 0)
(0.88461 -0.204758 0)
(0.872554 -0.200869 0)
(0.863662 -0.19649 0)
(0.85608 -0.191616 0)
(1.01941 -0.00216278 0)
(1.02151 -0.0074703 0)
(1.02507 -0.0124397 0)
(1.0299 -0.0186061 0)
(1.0358 -0.0254485 0)
(1.0424 -0.0336103 0)
(1.04934 -0.0431034 0)
(1.05622 -0.0541203 0)
(1.06253 -0.0667133 0)
(1.06776 -0.0808979 0)
(1.07136 -0.0965701 0)
(1.07283 -0.113524 0)
(1.07173 -0.131431 0)
(1.06772 -0.149859 0)
(1.06059 -0.16825 0)
(1.05026 -0.185964 0)
(1.03689 -0.202429 0)
(1.02086 -0.217069 0)
(1.00266 -0.229165 0)
(0.982801 -0.238462 0)
(0.961368 -0.246102 0)
(0.93813 -0.252958 0)
(0.913535 -0.2567 0)
(0.890791 -0.253864 0)
(0.87552 -0.246828 0)
(0.866422 -0.24022 0)
(0.856363 -0.23311 0)
(0.845658 -0.225661 0)
(0.836929 -0.219122 0)
(1.02002 -0.00212978 0)
(1.02221 -0.00733417 0)
(1.02593 -0.0122225 0)
(1.031 -0.0183058 0)
(1.03723 -0.0250699 0)
(1.04426 -0.0331826 0)
(1.05175 -0.0426677 0)
(1.0593 -0.0537526 0)
(1.06643 -0.0665313 0)
(1.0726 -0.0810704 0)
(1.07726 -0.0973255 0)
(1.0799 -0.115152 0)
(1.08002 -0.134272 0)
(1.0772 -0.154303 0)
(1.07112 -0.174744 0)
(1.06154 -0.194971 0)
(1.0485 -0.214354 0)
(1.03233 -0.232253 0)
(1.01337 -0.247934 0)
(0.992016 -0.260627 0)
(0.969428 -0.269162 0)
(0.947652 -0.272007 0)
(0.92809 -0.270137 0)
(0.910047 -0.26871 0)
(0.889044 -0.26907 0)
(0.86431 -0.266182 0)
(0.843484 -0.260689 0)
(0.829031 -0.254919 0)
(0.816956 -0.247875 0)
(1.02057 -0.002096 0)
(1.02284 -0.00719631 0)
(1.0267 -0.0120001 0)
(1.03199 -0.0179909 0)
(1.03852 -0.0246623 0)
(1.04594 -0.0327017 0)
(1.05394 -0.0421412 0)
(1.06211 -0.0532394 0)
(1.07 -0.0661268 0)
(1.07708 -0.0809164 0)
(1.08281 -0.097619 0)
(1.08664 -0.116151 0)
(1.08804 -0.136298 0)
(1.08652 -0.157743 0)
(1.08164 -0.180052 0)
(1.07311 -0.202631 0)
(1.06087 -0.224828 0)
(1.04505 -0.246012 0)
(1.02585 -0.265424 0)
(1.0035 -0.282178 0)
(0.978322 -0.296051 0)
(0.950271 -0.308321 0)
(0.919336 -0.319007 0)
(0.887093 -0.323417 0)
(0.858923 -0.318485 0)
(0.840019 -0.31026 0)
(0.825236 -0.302415 0)
(0.808568 -0.29259 0)
(0.793649 -0.282987 0)
(1.02106 -0.00206238 0)
(1.02341 -0.00706034 0)
(1.02739 -0.0117787 0)
(1.03287 -0.0176719 0)
(1.03968 -0.0242413 0)
(1.04745 -0.0321903 0)
(1.05591 -0.0415554 0)
(1.06467 -0.0526238 0)
(1.07327 -0.0655556 0)
(1.08122 -0.0805056 0)
(1.08798 -0.0975357 0)
(1.09298 -0.116625 0)
(1.09566 -0.137627 0)
(1.09548 -0.160285 0)
(1.09198 -0.184231 0)
(1.08478 -0.208929 0)
(1.07368 -0.233769 0)
(1.05867 -0.258161 0)
(1.0398 -0.281388 0)
(1.01709 -0.302537 0)
(0.990926 -0.320473 0)
(0.962721 -0.333169 0)
(0.934606 -0.338381 0)
(0.907994 -0.338635 0)
(0.881471 -0.341068 0)
(0.849975 -0.342964 0)
(0.816341 -0.337912 0)
(0.79044 -0.330461 0)
(0.770811 -0.321552 0)
(1.02149 -0.00202961 0)
(1.02391 -0.00692883 0)
(1.02801 -0.0115632 0)
(1.03366 -0.0173566 0)
(1.04072 -0.0238192 0)
(1.04881 -0.0316663 0)
(1.05768 -0.0409361 0)
(1.06697 -0.0519412 0)
(1.07624 -0.064866 0)
(1.08501 -0.0799021 0)
(1.09274 -0.0971592 0)
(1.09887 -0.116675 0)
(1.10281 -0.138366 0)
(1.10402 -0.162032 0)
(1.102 -0.187373 0)
(1.09629 -0.213934 0)
(1.08661 -0.241179 0)
(1.07283 -0.268574 0)
(1.05485 -0.295461 0)
(1.03254 -0.32093 0)
(1.00583 -0.343976 0)
(0.974636 -0.364548 0)
(0.938654 -0.384213 0)
(0.898263 -0.401347 0)
(0.85589 -0.407195 0)
(0.819439 -0.40035 0)
(0.793576 -0.391784 0)
(0.769361 -0.381764 0)
(0.743959 -0.368285 0)
(1.02188 -0.00199815 0)
(1.02436 -0.00680354 0)
(1.02855 -0.0113567 0)
(1.03436 -0.0170509 0)
(1.04164 -0.0234052 0)
(1.05001 -0.0311436 0)
(1.05927 -0.040304 0)
(1.06905 -0.0512213 0)
(1.07893 -0.0640997 0)
(1.08846 -0.0791637 0)
(1.09709 -0.0965649 0)
(1.10429 -0.116393 0)
(1.10948 -0.138621 0)
(1.11207 -0.163104 0)
(1.11156 -0.18961 0)
(1.10743 -0.217774 0)
(1.09936 -0.247136 0)
(1.08714 -0.277238 0)
(1.07055 -0.307521 0)
(1.04925 -0.337253 0)
(1.02297 -0.365542 0)
(0.991865 -0.390837 0)
(0.957446 -0.409829 0)
(0.921649 -0.419357 0)
(0.885839 -0.424663 0)
(0.84735 -0.434313 0)
(0.800583 -0.438159 0)
(0.75425 -0.430549 0)
(0.719732 -0.420585 0)
(1.02222 -0.00196832 0)
(1.02476 -0.00668563 0)
(1.02904 -0.0111615 0)
(1.03498 -0.0167588 0)
(1.04245 -0.0230063 0)
(1.05108 -0.0306332 0)
(1.06068 -0.0396756 0)
(1.0709 -0.0504883 0)
(1.08134 -0.0632912 0)
(1.09156 -0.0783375 0)
(1.10104 -0.0958149 0)
(1.10925 -0.115856 0)
(1.11563 -0.13849 0)
(1.11958 -0.163623 0)
(1.12055 -0.191086 0)
(1.11804 -0.220592 0)
(1.11169 -0.251758 0)
(1.10128 -0.284219 0)
(1.08645 -0.31754 0)
(1.06678 -0.351133 0)
(1.04188 -0.384245 0)
(1.01115 -0.415869 0)
(0.973551 -0.446339 0)
(0.928684 -0.478143 0)
(0.876647 -0.506633 0)
(0.81938 -0.515712 0)
(0.76941 -0.507926 0)
(0.731631 -0.500172 0)
(0.692649 -0.485989 0)
(1.02253 -0.00194035 0)
(1.02511 -0.00657577 0)
(1.02946 -0.0109789 0)
(1.03552 -0.0164834 0)
(1.04317 -0.0226274 0)
(1.05202 -0.030143 0)
(1.06193 -0.0390638 0)
(1.07254 -0.0497617 0)
(1.08349 -0.0624685 0)
(1.09434 -0.0774624 0)
(1.10461 -0.094962 0)
(1.11377 -0.115137 0)
(1.12127 -0.138067 0)
(1.1265 -0.163707 0)
(1.1289 -0.191939 0)
(1.128 -0.222544 0)
(1.12343 -0.255211 0)
(1.11495 -0.289668 0)
(1.10217 -0.325612 0)
(1.08456 -0.362608 0)
(1.06164 -0.400247 0)
(1.03273 -0.437945 0)
(0.99737 -0.473723 0)
(0.956739 -0.502404 0)
(0.911764 -0.519355 0)
(0.863542 -0.535339 0)
(0.807462 -0.559337 0)
(0.736563 -0.565799 0)
(0.669818 -0.554521 0)
(1.02279 -0.0019144 0)
(1.02542 -0.00647429 0)
(1.02983 -0.0108098 0)
(1.036 -0.0162263 0)
(1.0438 -0.0222716 0)
(1.05285 -0.0296787 0)
(1.06303 -0.0384779 0)
(1.07399 -0.0490559 0)
(1.08539 -0.0616533 0)
(1.09682 -0.0765693 0)
(1.10781 -0.0940497 0)
(1.11784 -0.114297 0)
(1.12637 -0.137433 0)
(1.13281 -0.163458 0)
(1.13659 -0.192293 0)
(1.13726 -0.223779 0)
(1.13446 -0.257672 0)
(1.12792 -0.293766 0)
(1.11734 -0.331894 0)
(1.10214 -0.371794 0)
(1.08175 -0.41322 0)
(1.05569 -0.455928 0)
(1.0224 -0.499268 0)
(0.97888 -0.544356 0)
(0.924745 -0.596615 0)
(0.858656 -0.647048 0)
(0.777619 -0.663776 0)
(0.701868 -0.656798 0)
(0.642218 -0.64996 0)
(1.02302 -0.00189051 0)
(1.02569 -0.00638128 0)
(1.03016 -0.0106542 0)
(1.03642 -0.0159885 0)
(1.04435 -0.0219411 0)
(1.05357 -0.0292441 0)
(1.064 -0.0379247 0)
(1.07526 -0.048382 0)
(1.08708 -0.0608627 0)
(1.09903 -0.0756841 0)
(1.11067 -0.0931151 0)
(1.12149 -0.113387 0)
(1.13097 -0.136656 0)
(1.13854 -0.162963 0)
(1.14362 -0.192264 0)
(1.14577 -0.224446 0)
(1.14467 -0.259322 0)
(1.14006 -0.296733 0)
(1.13169 -0.336611 0)
(1.1191 -0.378889 0)
(1.10161 -0.423462 0)
(1.07867 -0.470512 0)
(1.04948 -0.520601 0)
(1.01241 -0.571857 0)
(0.966432 -0.615538 0)
(0.910742 -0.644202 0)
(0.847249 -0.684239 0)
(0.761511 -0.741471 0)
(0.641489 -0.747438 0)
(1.02323 -0.00186871 0)
(1.02592 -0.00629662 0)
(1.03044 -0.0105123 0)
(1.03679 -0.0157706 0)
(1.04483 -0.0216369 0)
(1.05421 -0.0288415 0)
(1.06485 -0.0374086 0)
(1.07639 -0.0477473 0)
(1.08856 -0.0601088 0)
(1.10097 -0.0748259 0)
(1.1132 -0.0921862 0)
(1.12474 -0.112446 0)
(1.13509 -0.135791 0)
(1.1437 -0.162298 0)
(1.14998 -0.19195 0)
(1.15352 -0.224671 0)
(1.15402 -0.260319 0)
(1.15127 -0.298771 0)
(1.14502 -0.340004 0)
(1.13506 -0.384133 0)
(1.12075 -0.431265 0)
(1.10135 -0.481578 0)
(1.07693 -0.536087 0)
(1.04523 -0.595638 0)
(0.997654 -0.661777 0)
(0.935304 -0.748543 0)
(0.858923 -0.848853 0)
(0.73395 -0.891111 0)
(0.583291 -0.882501 0)
(1.02341 -0.00184894 0)
(1.02613 -0.00622009 0)
(1.03069 -0.0103836 0)
(1.03711 -0.0155723 0)
(1.04525 -0.0213592 0)
(1.05477 -0.0284719 0)
(1.06559 -0.0369321 0)
(1.07737 -0.0471571 0)
(1.08987 -0.0594008 0)
(1.10269 -0.0740093 0)
(1.11543 -0.0912856 0)
(1.12762 -0.111508 0)
(1.13876 -0.134886 0)
(1.1483 -0.161527 0)
(1.15569 -0.191439 0)
(1.1605 -0.224571 0)
(1.16249 -0.260815 0)
(1.16149 -0.300078 0)
(1.15726 -0.34235 0)
(1.14975 -0.38783 0)
(1.13871 -0.436908 0)
(1.1232 -0.489784 0)
(1.10302 -0.547517 0)
(1.07849 -0.613847 0)
(1.04653 -0.689338 0)
(1.00069 -0.755814 0)
(0.933298 -0.799335 0)
(0.852438 -0.90244 0)
(0.693618 -1.04442 0)
(1.02356 -0.00183115 0)
(1.02631 -0.00615132 0)
(1.03091 -0.0102677 0)
(1.03739 -0.0153932 0)
(1.04562 -0.0211076 0)
(1.05525 -0.0281357 0)
(1.06624 -0.0364965 0)
(1.07824 -0.046614 0)
(1.09101 -0.058744 0)
(1.10419 -0.0732435 0)
(1.1174 -0.0904283 0)
(1.13017 -0.110595 0)
(1.14201 -0.133975 0)
(1.1524 -0.160698 0)
(1.16078 -0.190798 0)
(1.16675 -0.224238 0)
(1.1701 -0.26093 0)
(1.1707 -0.30081 0)
(1.16837 -0.343869 0)
(1.1631 -0.390298 0)
(1.15509 -0.440703 0)
(1.14362 -0.495531 0)
(1.12801 -0.55538 0)
(1.11065 -0.624133 0)
(1.08989 -0.705504 0)
(1.04537 -0.795231 0)
(0.980769 -0.932052 0)
(0.909768 -1.157 0)
(0.64472 -1.21256 0)
(0.998798 -0.00209903 0)
(0.998764 -0.0019561 0)
(0.998599 -0.00181472 0)
(0.99829 -0.00167511 0)
(0.997814 -0.00153841 0)
(0.997149 -0.00140636 0)
(0.996271 -0.00128163 0)
(0.995166 -0.00116789 0)
(0.993838 -0.00106954 0)
(0.992314 -0.000991277 0)
(0.990651 -0.00093742 0)
(0.988939 -0.000911088 0)
(0.987295 -0.000913276 0)
(0.985856 -0.000942089 0)
(0.984757 -0.000992351 0)
(0.984116 -0.00105575 0)
(0.984009 -0.00112158 0)
(0.984454 -0.0011781 0)
(0.985407 -0.00121416 0)
(0.997173 -0.00713832 0)
(0.997261 -0.0070466 0)
(0.99747 -0.00695661 0)
(0.997827 -0.00687 0)
(0.998372 -0.00678508 0)
(0.999151 -0.00669879 0)
(1.00021 -0.00660627 0)
(1.00157 -0.00650048 0)
(1.00325 -0.00637235 0)
(1.00523 -0.00621136 0)
(1.00741 -0.00600663 0)
(1.00968 -0.00574852 0)
(1.01187 -0.00543067 0)
(1.01377 -0.00505184 0)
(1.01517 -0.00461739 0)
(1.01591 -0.00413952 0)
(1.01586 -0.00363627 0)
(1.01501 -0.00312912 0)
(1.01345 -0.00263975 0)
(0.993843 -0.0118952 0)
(0.993868 -0.0114833 0)
(0.99379 -0.0110584 0)
(0.993575 -0.0106212 0)
(0.993174 -0.0101743 0)
(0.992531 -0.00972059 0)
(0.991585 -0.00926449 0)
(0.990281 -0.00881234 0)
(0.988584 -0.00837236 0)
(0.986499 -0.0079543 0)
(0.98408 -0.00756846 0)
(0.981449 -0.00722418 0)
(0.978793 -0.00692789 0)
(0.976348 -0.00668126 0)
(0.974371 -0.00647982 0)
(0.973096 -0.00631281 0)
(0.972686 -0.00616426 0)
(0.973199 -0.00601543 0)
(0.97457 -0.00584805 0)
(0.988603 -0.0183254 0)
(0.988364 -0.0180205 0)
(0.988252 -0.0177035 0)
(0.9883 -0.0173778 0)
(0.988559 -0.017044 0)
(0.98909 -0.0167024 0)
(0.989962 -0.016353 0)
(0.991235 -0.015994 0)
(0.992947 -0.0156225 0)
(0.995091 -0.0152334 0)
(0.997595 -0.0148206 0)
(1.00031 -0.0143779 0)
(1.00302 -0.0139005 0)
(1.00545 -0.0133867 0)
(1.0073 -0.0128396 0)
(1.00831 -0.0122675 0)
(1.00834 -0.0116822 0)
(1.00733 -0.0110977 0)
(1.00539 -0.0105258 0)
(0.983718 -0.028675 0)
(0.983512 -0.027994 0)
(0.983236 -0.0273065 0)
(0.982864 -0.0266102 0)
(0.982354 -0.0259046 0)
(0.981645 -0.0251878 0)
(0.980669 -0.0244585 0)
(0.979355 -0.0237165 0)
(0.977644 -0.0229633 0)
(0.975515 -0.0222028 0)
(0.973005 -0.021441 0)
(0.970228 -0.0206859 0)
(0.967385 -0.0199456 0)
(0.964746 -0.0192271 0)
(0.962614 -0.0185336 0)
(0.961267 -0.017864 0)
(0.96089 -0.0172126 0)
(0.96153 -0.0165708 0)
(0.963071 -0.0159297 0)
(0.975909 -0.0354739 0)
(0.975459 -0.0349011 0)
(0.975097 -0.0343049 0)
(0.974848 -0.0336897 0)
(0.974754 -0.0330562 0)
(0.974872 -0.0324063 0)
(0.975275 -0.031742 0)
(0.976037 -0.0310652 0)
(0.977222 -0.0303762 0)
(0.978856 -0.0296734 0)
(0.980911 -0.0289526 0)
(0.983271 -0.0282068 0)
(0.985737 -0.0274273 0)
(0.988028 -0.0266062 0)
(0.989833 -0.0257381 0)
(0.990862 -0.0248231 0)
(0.990918 -0.0238671 0)
(0.989948 -0.0228811 0)
(0.988064 -0.0218778 0)
(0.968932 -0.0467952 0)
(0.968393 -0.0457256 0)
(0.967811 -0.0446429 0)
(0.967169 -0.0435463 0)
(0.966439 -0.042436 0)
(0.965575 -0.0413107 0)
(0.964516 -0.0401682 0)
(0.963189 -0.0390068 0)
(0.961522 -0.037826 0)
(0.959463 -0.0366278 0)
(0.957008 -0.0354175 0)
(0.954228 -0.0342047 0)
(0.951289 -0.0330025 0)
(0.948449 -0.0318247 0)
(0.946029 -0.0306829 0)
(0.944345 -0.0295823 0)
(0.943632 -0.0285192 0)
(0.943969 -0.0274817 0)
(0.945253 -0.0264524 0)
(0.958942 -0.0552678 0)
(0.958135 -0.0543634 0)
(0.9574 -0.0534215 0)
(0.956751 -0.0524485 0)
(0.956219 -0.0514458 0)
(0.955846 -0.0504163 0)
(0.955695 -0.0493635 0)
(0.95584 -0.0482908 0)
(0.956356 -0.0472002 0)
(0.957305 -0.0460907 0)
(0.958705 -0.0449561 0)
(0.960504 -0.043784 0)
(0.962549 -0.0425553 0)
(0.964589 -0.0412476 0)
(0.9663 -0.0398397 0)
(0.96734 -0.0383193 0)
(0.96744 -0.0366884 0)
(0.966477 -0.0349661 0)
(0.964526 -0.0331845 0)
(0.949982 -0.0672772 0)
(0.948963 -0.0657024 0)
(0.947935 -0.0640935 0)
(0.946895 -0.0624505 0)
(0.945825 -0.0607743 0)
(0.944694 -0.0590631 0)
(0.943451 -0.0573142 0)
(0.942024 -0.0555245 0)
(0.940327 -0.0536922 0)
(0.938267 -0.0518185 0)
(0.935777 -0.0499109 0)
(0.932845 -0.0479858 0)
(0.929558 -0.0460693 0)
(0.926128 -0.0441959 0)
(0.922889 -0.0424016 0)
(0.920246 -0.0407145 0)
(0.918579 -0.0391443 0)
(0.918129 -0.0376763 0)
(0.918901 -0.0362729 0)
(0.937879 -0.0787396 0)
(0.936451 -0.0773609 0)
(0.935091 -0.0759225 0)
(0.933804 -0.0744342 0)
(0.932605 -0.0728995 0)
(0.931524 -0.0713237 0)
(0.930607 -0.0697141 0)
(0.92992 -0.0680789 0)
(0.929549 -0.0664262 0)
(0.929594 -0.0647619 0)
(0.930145 -0.0630857 0)
(0.931248 -0.0613865 0)
(0.932863 -0.0596387 0)
(0.934818 -0.0578013 0)
(0.9368 -0.0558235 0)
(0.938385 -0.0536568 0)
(0.939128 -0.0512729 0)
(0.938692 -0.0486796 0)
(0.93697 -0.0459261 0)
(0.926866 -0.0929389 0)
(0.925132 -0.0907693 0)
(0.923435 -0.0885367 0)
(0.921782 -0.0862438 0)
(0.920171 -0.0838929 0)
(0.918588 -0.0814834 0)
(0.917003 -0.079013 0)
(0.915363 -0.0764774 0)
(0.913583 -0.0738707 0)
(0.911549 -0.0711873 0)
(0.909124 -0.0684259 0)
(0.906182 -0.0655952 0)
(0.90266 -0.0627209 0)
(0.89862 -0.0598504 0)
(0.894312 -0.0570514 0)
(0.89019 -0.0543996 0)
(0.886846 -0.0519565 0)
(0.884851 -0.0497431 0)
(0.884542 -0.0477218 0)
(0.913181 -0.107896 0)
(0.91088 -0.105852 0)
(0.908677 -0.103717 0)
(0.90657 -0.101506 0)
(0.904566 -0.0992276 0)
(0.902675 -0.0968899 0)
(0.900918 -0.0945035 0)
(0.899334 -0.0920803 0)
(0.897985 -0.0896341 0)
(0.896966 -0.0871802 0)
(0.896406 -0.0847325 0)
(0.896451 -0.0822974 0)
(0.897223 -0.0798647 0)
(0.898746 -0.0773966 0)
(0.900867 -0.0748211 0)
(0.903193 -0.0720372 0)
(0.90511 -0.0689389 0)
(0.905921 -0.0654579 0)
(0.90508 -0.0616069 0)
(0.899849 -0.125369 0)
(0.897129 -0.122449 0)
(0.894506 -0.119414 0)
(0.891994 -0.116277 0)
(0.889598 -0.113036 0)
(0.887315 -0.109693 0)
(0.885134 -0.106247 0)
(0.883028 -0.102695 0)
(0.880943 -0.0990318 0)
(0.878789 -0.0952503 0)
(0.876424 -0.0913397 0)
(0.873658 -0.0872921 0)
(0.870272 -0.0831117 0)
(0.866089 -0.0788306 0)
(0.861077 -0.0745239 0)
(0.855492 -0.0703168 0)
(0.849966 -0.0663664 0)
(0.845454 -0.062814 0)
(0.842956 -0.0597172 0)
(0.884543 -0.143645 0)
(0.881018 -0.140556 0)
(0.877659 -0.137311 0)
(0.874457 -0.133926 0)
(0.871414 -0.130424 0)
(0.868535 -0.126825 0)
(0.865827 -0.123148 0)
(0.863299 -0.119415 0)
(0.860977 -0.11565 0)
(0.858909 -0.111879 0)
(0.857191 -0.108134 0)
(0.855979 -0.104451 0)
(0.855499 -0.10086 0)
(0.856006 -0.0973762 0)
(0.857684 -0.0939672 0)
(0.860479 -0.0905308 0)
(0.863913 -0.0868828 0)
(0.867021 -0.0827952 0)
(0.868553 -0.0780962 0)
(0.86809 -0.164851 0)
(0.863869 -0.160726 0)
(0.859842 -0.156388 0)
(0.856029 -0.15187 0)
(0.852453 -0.147175 0)
(0.849116 -0.142312 0)
(0.846022 -0.137288 0)
(0.843161 -0.132111 0)
(0.840513 -0.12679 0)
(0.838035 -0.121328 0)
(0.835647 -0.115727 0)
(0.833206 -0.109977 0)
(0.83048 -0.104066 0)
(0.827135 -0.0979845 0)
(0.822794 -0.0917556 0)
(0.817186 -0.0854745 0)
(0.810435 -0.0793463 0)
(0.803381 -0.073676 0)
(0.797657 -0.0687765 0)
(0.850005 -0.186956 0)
(0.844598 -0.18217 0)
(0.839482 -0.177061 0)
(0.834683 -0.171674 0)
(0.830198 -0.166046 0)
(0.826043 -0.160227 0)
(0.822226 -0.154259 0)
(0.81875 -0.148193 0)
(0.815624 -0.14208 0)
(0.812857 -0.135973 0)
(0.810482 -0.129934 0)
(0.808572 -0.124027 0)
(0.807286 -0.118331 0)
(0.806905 -0.112927 0)
(0.807844 -0.107891 0)
(0.810551 -0.103239 0)
(0.815221 -0.0988612 0)
(0.821325 -0.0944485 0)
(0.827235 -0.0895173 0)
(0.829424 -0.212867 0)
(0.822687 -0.206636 0)
(0.816367 -0.200006 0)
(0.810455 -0.192989 0)
(0.805025 -0.185644 0)
(0.800103 -0.177993 0)
(0.795708 -0.170084 0)
(0.79186 -0.16196 0)
(0.788554 -0.153666 0)
(0.785778 -0.145244 0)
(0.783498 -0.136733 0)
(0.781644 -0.128163 0)
(0.78008 -0.11955 0)
(0.778549 -0.110891 0)
(0.7766 -0.102169 0)
(0.773561 -0.0933827 0)
(0.768685 -0.0846388 0)
(0.76168 -0.0762378 0)
(0.753592 -0.0687608 0)
(0.806985 -0.240694 0)
(0.798342 -0.233245 0)
(0.790183 -0.225018 0)
(0.782679 -0.216223 0)
(0.775847 -0.206883 0)
(0.769732 -0.197115 0)
(0.764385 -0.187013 0)
(0.759818 -0.176684 0)
(0.756052 -0.166248 0)
(0.753086 -0.155828 0)
(0.750923 -0.14556 0)
(0.74957 -0.135588 0)
(0.749068 -0.126063 0)
(0.749537 -0.117153 0)
(0.751258 -0.109034 0)
(0.754776 -0.101892 0)
(0.760898 -0.0958343 0)
(0.770257 -0.0908023 0)
(0.782348 -0.0862335 0)
(0.781389 -0.273886 0)
(0.770158 -0.264204 0)
(0.759753 -0.253737 0)
(0.750168 -0.242371 0)
(0.741528 -0.230264 0)
(0.73397 -0.217524 0)
(0.727533 -0.204264 0)
(0.722305 -0.190641 0)
(0.718306 -0.176792 0)
(0.71556 -0.162868 0)
(0.714051 -0.149004 0)
(0.713738 -0.135325 0)
(0.714526 -0.12193 0)
(0.716239 -0.108886 0)
(0.718539 -0.096223 0)
(0.720793 -0.0839023 0)
(0.721858 -0.0719597 0)
(0.720214 -0.0604594 0)
(0.714327 -0.0498976 0)
(0.753807 -0.310761 0)
(0.739189 -0.299362 0)
(0.72553 -0.286282 0)
(0.713027 -0.271885 0)
(0.70196 -0.256354 0)
(0.692359 -0.239824 0)
(0.684426 -0.222567 0)
(0.678193 -0.204775 0)
(0.673744 -0.186711 0)
(0.671079 -0.16862 0)
(0.670199 -0.150778 0)
(0.671062 -0.133469 0)
(0.673619 -0.117 0)
(0.67784 -0.101709 0)
(0.683779 -0.0879503 0)
(0.691692 -0.0761754 0)
(0.702381 -0.0666519 0)
(0.716884 -0.0598532 0)
(0.737339 -0.055803 0)
(0.722892 -0.355411 0)
(0.703869 -0.340963 0)
(0.68595 -0.324446 0)
(0.669826 -0.306191 0)
(0.655461 -0.286162 0)
(0.643304 -0.264839 0)
(0.633396 -0.242408 0)
(0.625946 -0.219247 0)
(0.620981 -0.195664 0)
(0.618581 -0.171999 0)
(0.618734 -0.148582 0)
(0.621422 -0.125734 0)
(0.626571 -0.103756 0)
(0.634037 -0.0828923 0)
(0.643537 -0.0633657 0)
(0.654574 -0.0450776 0)
(0.665738 -0.028281 0)
(0.675865 -0.0127244 0)
(0.679978 0.00164498 0)
(0.691249 -0.406352 0)
(0.665531 -0.388966 0)
(0.642259 -0.368909 0)
(0.620943 -0.345666 0)
(0.602528 -0.320291 0)
(0.58698 -0.292913 0)
(0.574693 -0.264124 0)
(0.56566 -0.234335 0)
(0.560055 -0.203993 0)
(0.557855 -0.173526 0)
(0.559102 -0.14337 0)
(0.563761 -0.113976 0)
(0.571783 -0.0858357 0)
(0.583067 -0.0595405 0)
(0.597536 -0.0356512 0)
(0.614964 -0.0153797 0)
(0.636662 0.000979748 0)
(0.661805 0.0118207 0)
(0.696002 0.0154833 0)
(0.654953 -0.467043 0)
(0.622601 -0.446693 0)
(0.591823 -0.42075 0)
(0.564723 -0.391631 0)
(0.541223 -0.3592 0)
(0.521987 -0.32441 0)
(0.506883 -0.287917 0)
(0.496212 -0.250254 0)
(0.489799 -0.211967 0)
(0.487769 -0.173518 0)
(0.490086 -0.135356 0)