/*--------------------------------*- C++ -*----------------------------------*\
  =========                 |
  \\      /  F ield         | OpenFOAM: The Open Source CFD Toolbox
   \\    /   O peration     | Website:  https://openfoam.org
    \\  /    A nd           | Version:  10
     \\/     M anipulation  |
\*---------------------------------------------------------------------------*/
FoamFile
{
    format      ascii;
    class       volVectorField;
    location    "0";
    object      U;
}
// * * * * * * * * * * * * * * * * * * * * * * * * * * * * * * * * * * * * * //

dimensions      [0 1 -1 0 0 0 0];

internalField   nonuniform List<vector> 
18483
(
(1 -0.000185949 0)
(1 -0.00066489 0)
(1 -0.00106231 0)
(1 -0.00149553 0)
(0.999999 -0.0019151 0)
(0.999998 -0.00232856 0)
(0.999997 -0.0027196 0)
(0.999996 -0.00307617 0)
(0.999993 -0.0033873 0)
(0.999987 -0.00364629 0)
(0.999979 -0.00385379 0)
(0.999964 -0.00401962 0)
(0.999939 -0.00416232 0)
(0.9999 -0.00433428 0)
(0.999835 -0.00459396 0)
(0.999727 -0.00496893 0)
(0.999509 -0.00539845 0)
(0.998938 -0.00575327 0)
(0.997468 -0.00590598 0)
(0.994663 -0.00571221 0)
(0.991318 -0.00520152 0)
(0.989452 -0.00460792 0)
(0.990141 -0.00408545 0)
(0.992425 -0.00365064 0)
(0.994842 -0.00329111 0)
(0.996682 -0.00299531 0)
(0.997876 -0.00275183 0)
(0.998588 -0.00255141 0)
(0.998987 -0.00238583 0)
(1.00057 -0.00054896 0)
(1.0006 -0.00194767 0)
(1.00066 -0.00310131 0)
(1.00073 -0.00435648 0)
(1.0008 -0.00556033 0)
(1.00086 -0.00674096 0)
(1.0009 -0.0078512 0)
(1.0009 -0.00885826 0)
(1.00086 -0.00972944 0)
(1.00079 -0.0104398 0)
(1.00069 -0.0109796 0)
(1.0006 -0.0113744 0)
(1.00056 -0.0116421 0)
(1.00062 -0.0117081 0)
(1.00078 -0.0114668 0)
(1.00099 -0.0108563 0)
(1.00114 -0.00997775 0)
(1.00119 -0.0090659 0)
(1.00139 -0.00837109 0)
(1.00233 -0.00819678 0)
(1.00416 -0.0086285 0)
(1.00564 -0.00928219 0)
(1.00527 -0.00977072 0)
(1.00335 -0.0100504 0)
(1.00117 -0.0101811 0)
(0.9995 -0.0102134 0)
(0.998418 -0.0101871 0)
(0.997766 -0.0101263 0)
(0.997379 -0.0100477 0)
(1.00167 -0.000882621 0)
(1.00175 -0.00310599 0)
(1.00191 -0.00492702 0)
(1.00209 -0.00690555 0)
(1.00227 -0.00878353 0)
(1.0024 -0.0106156 0)
(1.00247 -0.0123281 0)
(1.00243 -0.0138717 0)
(1.00228 -0.0151906 0)
(1.00202 -0.0162473 0)
(1.00167 -0.0170013 0)
(1.00125 -0.017432 0)
(1.00085 -0.0175398 0)
(1.00045 -0.0173278 0)
(0.999981 -0.0169761 0)
(0.999365 -0.0167692 0)
(0.998626 -0.0167467 0)
(0.997818 -0.0167428 0)
(0.996857 -0.0166129 0)
(0.995494 -0.0162365 0)
(0.993529 -0.0154858 0)
(0.991497 -0.014519 0)
(0.990572 -0.0136696 0)
(0.991088 -0.0129524 0)
(0.992243 -0.0122913 0)
(0.993305 -0.011694 0)
(0.99406 -0.0111673 0)
(0.994548 -0.0107134 0)
(0.994854 -0.0103293 0)
(1.00303 -0.00119424 0)
(1.00317 -0.00417154 0)
(1.00344 -0.00659851 0)
(1.00373 -0.00923348 0)
(1.00403 -0.0117137 0)
(1.00424 -0.01413 0)
(1.00433 -0.0163848 0)
(1.00423 -0.0184228 0)
(1.00393 -0.0201704 0)
(1.00341 -0.0215777 0)
(1.00269 -0.022595 0)
(1.00181 -0.0231974 0)
(1.00081 -0.0234532 0)
(0.999703 -0.0234741 0)
(0.998547 -0.0233192 0)
(0.99745 -0.0227765 0)
(0.9965 -0.0216153 0)
(0.995779 -0.0200176 0)
(0.9956 -0.0183278 0)
(0.996493 -0.0168351 0)
(0.998477 -0.0157531 0)
(1.00034 -0.015117 0)
(1.00046 -0.0146222 0)
(0.998632 -0.0141228 0)
(0.99611 -0.0136952 0)
(0.993963 -0.013308 0)
(0.992451 -0.0129252 0)
(0.991445 -0.0125403 0)
(0.990769 -0.0121576 0)
(1.00448 -0.0014878 0)
(1.00468 -0.00516601 0)
(1.00507 -0.00815784 0)
(1.00548 -0.0114056 0)
(1.00591 -0.0144481 0)
(1.00622 -0.0174202 0)
(1.00635 -0.0202027 0)
(1.00622 -0.022741 0)
(1.00579 -0.024945 0)
(1.00505 -0.0267452 0)
(1.00401 -0.0280935 0)
(1.00271 -0.028973 0)
(1.00123 -0.0294137 0)
(0.99967 -0.0294039 0)
(0.998119 -0.02892 0)
(0.99658 -0.0281289 0)
(0.994934 -0.027389 0)
(0.993187 -0.0268914 0)
(0.991395 -0.0264251 0)
(0.989388 -0.025678 0)
(0.986874 -0.0244771 0)
(0.984159 -0.0228486 0)
(0.982467 -0.0211618 0)
(0.982489 -0.0196897 0)
(0.983417 -0.0183405 0)
(0.984235 -0.017099 0)
(0.984651 -0.0160061 0)
(0.98476 -0.0150642 0)
(0.984701 -0.0142634 0)
(1.00599 -0.00176324 0)
(1.00626 -0.00609408 0)
(1.00676 -0.00961643 0)
(1.00732 -0.0134429 0)
(1.00789 -0.0170228 0)
(1.00832 -0.0205394 0)
(1.00852 -0.0238546 0)
(1.00839 -0.0269187 0)
(1.00786 -0.0296308 0)
(1.0069 -0.03191 0)
(1.00551 -0.0337006 0)
(1.00374 -0.0349678 0)
(1.00169 -0.0356967 0)
(0.999459 -0.0358923 0)
(0.997076 -0.0356486 0)
(0.994596 -0.0351155 0)
(0.992146 -0.0341901 0)
(0.989888 -0.0326028 0)
(0.988054 -0.0304368 0)
(0.987173 -0.0281215 0)
(0.987753 -0.0260675 0)
(0.989157 -0.0245051 0)
(0.989527 -0.0232402 0)
(0.987782 -0.0220115 0)
(0.984895 -0.0209152 0)
(0.982285 -0.0199849 0)
(0.980393 -0.0191375 0)
(0.979077 -0.0183423 0)
(0.978139 -0.0175959 0)
(1.0076 -0.00201692 0)
(1.00794 -0.00694593 0)
(1.00857 -0.0109616 0)
(1.00927 -0.0153318 0)
(1.00999 -0.0194262 0)
(1.01056 -0.0234785 0)
(1.01086 -0.0273369 0)
(1.01076 -0.0309651 0)
(1.01017 -0.0342616 0)
(1.00901 -0.0371436 0)
(1.0073 -0.0395345 0)
(1.0051 -0.0413674 0)
(1.00251 -0.0426079 0)
(0.999649 -0.0432612 0)
(0.996614 -0.0433056 0)
(0.993514 -0.0427496 0)
(0.990379 -0.0417878 0)
(0.98711 -0.0407689 0)
(0.983736 -0.0398929 0)
(0.980303 -0.0389691 0)
(0.976492 -0.0376492 0)
(0.972282 -0.0357776 0)
(0.969047 -0.0336454 0)
(0.968169 -0.0316479 0)
(0.968904 -0.0297544 0)
(0.969637 -0.0279081 0)
(0.969824 -0.0262189 0)
(0.96964 -0.0247339 0)
(0.969292 -0.0234517 0)
(1.00927 -0.0022428 0)
(1.00969 -0.00770304 0)
(1.01044 -0.0121661 0)
(1.0113 -0.0170364 0)
(1.01219 -0.0216154 0)
(1.01293 -0.0261872 0)
(1.01337 -0.0305915 0)
(1.01336 -0.0348116 0)
(1.01278 -0.0387468 0)
(1.01155 -0.0423085 0)
(1.00966 -0.0453915 0)
(1.00716 -0.0478948 0)
(1.00414 -0.0497457 0)
(1.00073 -0.0509157 0)
(0.997008 -0.0513921 0)
(0.993001 -0.0512571 0)
(0.988756 -0.0506549 0)
(0.984441 -0.0494398 0)
(0.980471 -0.0473666 0)
(0.977532 -0.0446712 0)
(0.976341 -0.0419599 0)
(0.976749 -0.0397197 0)
(0.97686 -0.0378997 0)
(0.97463 -0.0361402 0)
(0.970621 -0.0345016 0)
(0.966894 -0.0331293 0)
(0.964225 -0.0319019 0)
(0.962353 -0.0307475 0)
(0.960979 -0.0296629 0)
(1.01094 -0.0024356 0)
(1.01144 -0.00834898 0)
(1.01233 -0.013204 0)
(1.01335 -0.0185211 0)
(1.01444 -0.0235452 0)
(1.01537 -0.0286084 0)
(1.01599 -0.0335441 0)
(1.01614 -0.0383569 0)
(1.01566 -0.0429481 0)
(1.01446 -0.0472309 0)
(1.01247 -0.0510922 0)
(1.0097 -0.0544203 0)
(1.0062 -0.0571164 0)
(1.00208 -0.059131 0)
(0.997472 -0.0604439 0)
(0.992499 -0.0610024 0)
(0.987317 -0.0608145 0)
(0.982035 -0.0601179 0)
(0.976727 -0.0593406 0)
(0.971461 -0.0586331 0)
(0.965888 -0.0576067 0)
(0.959667 -0.0558204 0)
(0.954107 -0.0533853 0)
(0.951521 -0.0508891 0)
(0.951699 -0.0484876 0)
(0.952199 -0.0460234 0)
(0.951936 -0.0436699 0)
(0.951228 -0.0415647 0)
(0.950389 -0.0397189 0)
(1.01257 -0.00259328 0)
(1.01317 -0.00887724 0)
(1.01418 -0.014064 0)
(1.01539 -0.0197686 0)
(1.01667 -0.0251912 0)
(1.01782 -0.0307067 0)
(1.01866 -0.0361438 0)
(1.01901 -0.0415294 0)
(1.01871 -0.0467767 0)
(1.01761 -0.0518182 0)
(1.01561 -0.056552 0)
(1.01267 -0.0608592 0)
(1.00884 -0.0645971 0)
(1.00423 -0.0676245 0)
(0.999023 -0.0698119 0)
(0.993363 -0.0710505 0)
(0.987311 -0.0713752 0)
(0.980991 -0.0709044 0)
(0.9748 -0.0695421 0)
(0.969443 -0.0671719 0)
(0.965788 -0.0641979 0)
(0.964314 -0.0614138 0)
(0.963586 -0.0591936 0)
(0.960594 -0.0570942 0)
(0.95488 -0.0549401 0)
(0.949263 -0.0530853 0)
(0.945296 -0.0514518 0)
(0.942508 -0.0498749 0)
(0.9404 -0.0483703 0)
(1.01414 -0.00271709 0)
(1.01482 -0.00929183 0)
(1.01597 -0.0147503 0)
(1.01735 -0.0207825 0)
(1.01885 -0.0265534 0)
(1.02023 -0.032475 0)
(1.02132 -0.0383729 0)
(1.02192 -0.0442967 0)
(1.02186 -0.0501783 0)
(1.02098 -0.0559764 0)
(1.01913 -0.0616003 0)
(1.01627 -0.0669182 0)
(1.01238 -0.0717481 0)
(1.00753 -0.0758904 0)
(1.00179 -0.0791878 0)
(0.995263 -0.0815612 0)
(0.988085 -0.0829972 0)
(0.980533 -0.083603 0)
(0.97292 -0.0837202 0)
(0.965369 -0.0837287 0)
(0.957514 -0.0835166 0)
(0.948701 -0.0823928 0)
(0.93984 -0.079956 0)
(0.934147 -0.0769346 0)
(0.932847 -0.0740075 0)
(0.9328 -0.0709259 0)
(0.931714 -0.0677974 0)
(0.930055 -0.0649586 0)
(0.928367 -0.0624408 0)
(1.0156 -0.00281051 0)
(1.01637 -0.00960425 0)
(1.01766 -0.0152788 0)
(1.01923 -0.0215818 0)
(1.02094 -0.0276507 0)
(1.02256 -0.0339294 0)
(1.02392 -0.0402403 0)
(1.02482 -0.0466529 0)
(1.02508 -0.0531179 0)
(1.02452 -0.0596198 0)
(1.02299 -0.0660893 0)
(1.02036 -0.0724109 0)
(1.01655 -0.0784135 0)
(1.01149 -0.0838934 0)
(1.00522 -0.0886398 0)
(0.997909 -0.0924487 0)
(0.98985 -0.0951325 0)
(0.981375 -0.0966079 0)
(0.972852 -0.0967762 0)
(0.964791 -0.0954335 0)
(0.957956 -0.0927187 0)
(0.953415 -0.0895203 0)
(0.950882 -0.0869231 0)
(0.946931 -0.0847696 0)
(0.939163 -0.0822837 0)
(0.930614 -0.0798837 0)
(0.924489 -0.0778225 0)
(0.920249 -0.075751 0)
(0.91696 -0.0736963 0)
(1.01696 -0.00287828 0)
(1.01782 -0.00983008 0)
(1.01924 -0.0156721 0)
(1.02099 -0.0221947 0)
(1.02293 -0.028514 0)
(1.0248 -0.0351009 0)
(1.02645 -0.0417736 0)
(1.02766 -0.0486158 0)
(1.02828 -0.0555954 0)
(1.02812 -0.0627287 0)
(1.02699 -0.0699867 0)
(1.02471 -0.0773002 0)
(1.02111 -0.0845268 0)
(1.01609 -0.0914433 0)
(1.00966 -0.0977495 0)
(1.00195 -0.103137 0)
(0.993193 -0.10739 0)
(0.98367 -0.110468 0)
(0.973653 -0.11254 0)
(0.963308 -0.114081 0)
(0.952512 -0.115357 0)
(0.940638 -0.115702 0)
(0.927804 -0.114045 0)
(0.917398 -0.110654 0)
(0.912984 -0.107024 0)
(0.911886 -0.103327 0)
(0.909647 -0.0992669 0)
(0.906457 -0.0954711 0)
(0.903435 -0.0921133 0)
(1.0182 -0.00292552 0)
(1.01915 -0.00998608 0)
(1.02071 -0.015955 0)
(1.02264 -0.022653 0)
(1.02479 -0.0291799 0)
(1.02692 -0.036029 0)
(1.02885 -0.0430124 0)
(1.0304 -0.0502229 0)
(1.03141 -0.0576443 0)
(1.03169 -0.0653282 0)
(1.03104 -0.0732923 0)
(1.02926 -0.0815189 0)
(1.02615 -0.089898 0)
(1.02152 -0.0982114 0)
(1.01526 -0.106151 0)
(1.00737 -0.113396 0)
(0.998014 -0.119663 0)
(0.987572 -0.124691 0)
(0.976454 -0.128116 0)
(0.965157 -0.129389 0)
(0.95447 -0.128168 0)
(0.945678 -0.125149 0)
(0.939852 -0.122117 0)
(0.934454 -0.120079 0)
(0.924691 -0.117808 0)
(0.912052 -0.114915 0)
(0.902302 -0.112364 0)
(0.895824 -0.109775 0)
(0.89074 -0.106985 0)
(1.01935 -0.00295699 0)
(1.02037 -0.010088 0)
(1.02206 -0.0161511 0)
(1.02417 -0.0229876 0)
(1.02654 -0.0296845 0)
(1.02892 -0.0367544 0)
(1.03113 -0.0440007 0)
(1.03301 -0.0515207 0)
(1.03441 -0.05931 0)
(1.03516 -0.0674515 0)
(1.03507 -0.0760061 0)
(1.03394 -0.0850113 0)
(1.03151 -0.0944203 0)
(1.02749 -0.10408 0)
(1.02161 -0.113725 0)
(1.01379 -0.123003 0)
(1.0042 -0.13149 0)
(0.993164 -0.138771 0)
(0.980898 -0.144548 0)
(0.967516 -0.149 0)
(0.95309 -0.152833 0)
(0.937427 -0.156004 0)
(0.920114 -0.156859 0)
(0.903423 -0.154141 0)
(0.893154 -0.149667 0)
(0.889654 -0.145231 0)
(0.886034 -0.140138 0)
(0.880528 -0.134933 0)
(0.875414 -0.130374 0)
(1.02038 -0.00297679 0)
(1.02149 -0.0101493 0)
(1.02331 -0.0162808 0)
(1.02559 -0.0232259 0)
(1.02816 -0.0300607 0)
(1.03078 -0.0373153 0)
(1.03327 -0.0447818 0)
(1.03546 -0.0525566 0)
(1.03725 -0.0606418 0)
(1.03848 -0.0691442 0)
(1.03899 -0.0781656 0)
(1.03857 -0.0878098 0)
(1.03692 -0.0981187 0)
(1.03366 -0.109026 0)
(1.02847 -0.120314 0)
(1.02117 -0.131614 0)
(1.0118 -0.142452 0)
(1.0005 -0.152352 0)
(0.987403 -0.160778 0)
(0.972873 -0.166952 0)
(0.957844 -0.169826 0)
(0.943781 -0.168998 0)
(0.932625 -0.166171 0)
(0.924205 -0.164331 0)
(0.912629 -0.163211 0)
(0.89513 -0.160471 0)
(0.879229 -0.157262 0)
(0.868931 -0.154161 0)
(0.861041 -0.150367 0)
(1.02133 -0.0029882 0)
(1.0225 -0.010181 0)
(1.02445 -0.0163611 0)
(1.02689 -0.0233908 0)
(1.02966 -0.0303365 0)
(1.03251 -0.0377448 0)
(1.03525 -0.0453943 0)
(1.03775 -0.0533754 0)
(1.0399 -0.0616914 0)
(1.0416 -0.0704665 0)
(1.04271 -0.0798408 0)
(1.04302 -0.089986 0)
(1.04223 -0.101032 0)
(1.03995 -0.113001 0)
(1.03578 -0.125754 0)
(1.02941 -0.138984 0)
(1.02066 -0.152234 0)
(1.00952 -0.16494 0)
(0.996005 -0.176426 0)
(0.980171 -0.18614 0)
(0.962168 -0.194423 0)
(0.942122 -0.202155 0)
(0.91979 -0.208204 0)
(0.895759 -0.209148 0)
(0.876036 -0.204824 0)
(0.866509 -0.199408 0)
(0.860801 -0.193554 0)
(0.852002 -0.186492 0)
(0.843231 -0.180058 0)
(1.02219 -0.00299375 0)
(1.02343 -0.0101917 0)
(1.02549 -0.0164053 0)
(1.02808 -0.0235006 0)
(1.03105 -0.0305351 0)
(1.03411 -0.0380712 0)
(1.03709 -0.0458717 0)
(1.03987 -0.0540178 0)
(1.04237 -0.0625095 0)
(1.0445 -0.0714813 0)
(1.04618 -0.0811032 0)
(1.04723 -0.0916056 0)
(1.04739 -0.1032 0)
(1.04625 -0.116012 0)
(1.04332 -0.130021 0)
(1.03814 -0.145032 0)
(1.0304 -0.160625 0)
(1.01994 -0.176211 0)
(1.00655 -0.191093 0)
(0.990179 -0.204353 0)
(0.971396 -0.214574 0)
(0.95181 -0.219936 0)
(0.93367 -0.220171 0)
(0.919187 -0.218917 0)
(0.904848 -0.219868 0)
(0.882727 -0.2196 0)
(0.857314 -0.216127 0)
(0.839485 -0.212447 0)
(0.826926 -0.207624 0)
(1.02298 -0.00299528 0)
(1.02428 -0.0101879 0)
(1.02645 -0.0164237 0)
(1.02918 -0.0235694 0)
(1.03233 -0.0306749 0)
(1.03559 -0.0383172 0)
(1.03879 -0.0462418 0)
(1.04183 -0.0545187 0)
(1.04463 -0.0631408 0)
(1.04717 -0.0722443 0)
(1.04939 -0.0820186 0)
(1.05119 -0.0927423 0)
(1.05231 -0.104708 0)
(1.05234 -0.118152 0)
(1.05075 -0.133187 0)
(1.04701 -0.149736 0)
(1.0407 -0.167464 0)
(1.03146 -0.185832 0)
(1.01887 -0.204149 0)
(1.00258 -0.221474 0)
(0.982453 -0.237033 0)
(0.958593 -0.251502 0)
(0.931138 -0.2656 0)
(0.899855 -0.275699 0)
(0.86776 -0.276176 0)
(0.845441 -0.270199 0)
(0.834339 -0.263967 0)
(0.821464 -0.255649 0)
(0.806181 -0.246385 0)
(1.02369 -0.0029941 0)
(1.02505 -0.0101743 0)
(1.02733 -0.0164241 0)
(1.03019 -0.0236081 0)
(1.0335 -0.0307702 0)
(1.03695 -0.0385013 0)
(1.04036 -0.046527 0)
(1.04363 -0.0549073 0)
(1.04672 -0.0636231 0)
(1.04962 -0.0728048 0)
(1.05234 -0.0826526 0)
(1.05482 -0.0934845 0)
(1.05686 -0.105667 0)
(1.05806 -0.119544 0)
(1.0579 -0.135346 0)
(1.05581 -0.153129 0)
(1.05128 -0.172699 0)
(1.04373 -0.193636 0)
(1.03256 -0.215361 0)
(1.01713 -0.237024 0)
(0.997149 -0.257198 0)
(0.973558 -0.273457 0)
(0.948598 -0.282734 0)
(0.925108 -0.285415 0)
(0.904734 -0.288702 0)
(0.879042 -0.294513 0)
(0.842349 -0.294463 0)
(0.809787 -0.290237 0)
(0.78846 -0.285063 0)
(1.02434 -0.00299116 0)
(1.02575 -0.0101543 0)
(1.02812 -0.0164122 0)
(1.03111 -0.0236248 0)
(1.03458 -0.030832 0)
(1.03819 -0.0386374 0)
(1.04179 -0.0467456 0)
(1.04528 -0.0552073 0)
(1.04861 -0.0639883 0)
(1.05184 -0.0732068 0)
(1.05502 -0.0830674 0)
(1.05812 -0.0939173 0)
(1.06102 -0.106184 0)
(1.06337 -0.1203 0)
(1.06468 -0.136611 0)
(1.06437 -0.155315 0)
(1.06182 -0.176391 0)
(1.05636 -0.199581 0)
(1.0472 -0.22444 0)
(1.03349 -0.250221 0)
(1.01445 -0.275635 0)
(0.989591 -0.299855 0)
(0.958715 -0.324333 0)
(0.921534 -0.348822 0)
(0.87782 -0.364283 0)
(0.835622 -0.363611 0)
(0.809364 -0.356949 0)
(0.79089 -0.349791 0)
(0.766056 -0.337779 0)
(1.02492 -0.00298712 0)
(1.02638 -0.0101305 0)
(1.02885 -0.0163923 0)
(1.03194 -0.0236257 0)
(1.03556 -0.0308689 0)
(1.03932 -0.0387367 0)
(1.04309 -0.0469118 0)
(1.04677 -0.055438 0)
(1.05034 -0.0642625 0)
(1.05385 -0.0734872 0)
(1.05742 -0.0833152 0)
(1.06109 -0.0941112 0)
(1.0648 -0.106348 0)
(1.06827 -0.120536 0)
(1.07102 -0.137131 0)
(1.07248 -0.156464 0)
(1.07202 -0.178687 0)
(1.06894 -0.203733 0)
(1.0623 -0.231327 0)
(1.051 -0.260983 0)
(1.03393 -0.291746 0)
(1.01057 -0.321677 0)
(0.982103 -0.346989 0)
(0.950831 -0.362582 0)
(0.919811 -0.370477 0)
(0.888788 -0.383649 0)
(0.844084 -0.396673 0)
(0.788777 -0.395749 0)
(0.74789 -0.390669 0)
(1.02544 -0.00298245 0)
(1.02695 -0.0101047 0)
(1.02949 -0.0163674 0)
(1.03268 -0.0236157 0)
(1.03645 -0.0308874 0)
(1.04034 -0.0388075 0)
(1.04428 -0.0470373 0)
(1.04813 -0.0556147 0)
(1.05189 -0.0644663 0)
(1.05565 -0.0736753 0)
(1.05957 -0.083437 0)
(1.06376 -0.0941245 0)
(1.0682 -0.106243 0)
(1.0727 -0.12037 0)
(1.07683 -0.137059 0)
(1.08001 -0.156758 0)
(1.08167 -0.17977 0)
(1.08115 -0.206237 0)
(1.07738 -0.236093 0)
(1.06909 -0.269068 0)
(1.05508 -0.304505 0)
(1.0341 -0.340942 0)
(1.00467 -0.377892 0)
(0.965796 -0.418429 0)
(0.915951 -0.460279 0)
(0.854218 -0.483554 0)
(0.797308 -0.481293 0)
(0.762175 -0.476096 0)
(0.727345 -0.466406 0)
(1.0259 -0.00297749 0)
(1.02745 -0.0100782 0)
(1.03007 -0.0163399 0)
(1.03335 -0.0235983 0)
(1.03724 -0.0308928 0)
(1.04126 -0.0388567 0)
(1.04535 -0.0471312 0)
(1.04935 -0.0557496 0)
(1.05328 -0.0646161 0)
(1.05727 -0.0737943 0)
(1.06149 -0.0834666 0)
(1.06613 -0.0940075 0)
(1.07123 -0.105945 0)
(1.07667 -0.119912 0)
(1.08206 -0.136539 0)
(1.0869 -0.156376 0)
(1.09065 -0.179856 0)
(1.09272 -0.207316 0)
(1.09205 -0.238922 0)
(1.08719 -0.274592 0)
(1.07685 -0.314138 0)
(1.05963 -0.356925 0)
(1.03412 -0.400638 0)
(1.00116 -0.439568 0)
(0.96235 -0.465315 0)
(0.920571 -0.484244 0)
(0.871241 -0.517648 0)
(0.795334 -0.540123 0)
(0.713694 -0.535667 0)
(1.02631 -0.00297247 0)
(1.0279 -0.0100519 0)
(1.03059 -0.0163113 0)
(1.03395 -0.0235762 0)
(1.03796 -0.0308889 0)
(1.04209 -0.0388895 0)
(1.0463 -0.0472006 0)
(1.05044 -0.0558521 0)
(1.05452 -0.0647249 0)
(1.0587 -0.0738626 0)
(1.06319 -0.0834316 0)
(1.06822 -0.0938021 0)
(1.0739 -0.105517 0)
(1.08017 -0.119248 0)
(1.08673 -0.13569 0)
(1.09313 -0.155481 0)
(1.09888 -0.179161 0)
(1.10346 -0.207222 0)
(1.10594 -0.240059 0)
(1.1048 -0.277811 0)
(1.09859 -0.320544 0)
(1.08631 -0.368221 0)
(1.06567 -0.419672 0)
(1.03248 -0.47502 0)
(0.985107 -0.541457 0)
(0.920019 -0.614719 0)
(0.82981 -0.651992 0)
(0.744468 -0.648195 0)
(0.688165 -0.646259 0)
(1.02668 -0.00296754 0)
(1.0283 -0.0100266 0)
(1.03105 -0.0162827 0)
(1.03449 -0.0235515 0)
(1.03859 -0.0308787 0)
(1.04282 -0.0389101 0)
(1.04716 -0.0472514 0)
(1.05141 -0.0559298 0)
(1.05563 -0.0648028 0)
(1.05997 -0.073895 0)
(1.06468 -0.0833539 0)
(1.07004 -0.0935415 0)
(1.07623 -0.105008 0)
(1.08325 -0.118452 0)
(1.09087 -0.134621 0)
(1.0987 -0.154224 0)
(1.10632 -0.177895 0)
(1.11329 -0.206233 0)
(1.1188 -0.239812 0)
(1.12149 -0.279031 0)
(1.11975 -0.324121 0)
(1.1126 -0.375621 0)
(1.09847 -0.434186 0)
(1.07379 -0.497752 0)
(1.03749 -0.557378 0)
(0.990262 -0.599281 0)
(0.934222 -0.643308 0)
(0.851108 -0.721672 0)
(0.713578 -0.751379 0)
(1.02701 -0.00296279 0)
(1.02866 -0.0100026 0)
(1.03146 -0.0162548 0)
(1.03496 -0.0235257 0)
(1.03916 -0.0308645 0)
(1.04348 -0.0389217 0)
(1.04793 -0.047288 0)
(1.05228 -0.0559885 0)
(1.05661 -0.0648579 0)
(1.06108 -0.0739026 0)
(1.06599 -0.0832499 0)
(1.07163 -0.09325 0)
(1.07827 -0.104455 0)
(1.08595 -0.117582 0)
(1.09451 -0.133418 0)
(1.10362 -0.15273 0)
(1.11296 -0.176229 0)
(1.12215 -0.204594 0)
(1.13049 -0.238497 0)
(1.13687 -0.278579 0)
(1.13981 -0.32534 0)
(1.13804 -0.379375 0)
(1.13118 -0.442174 0)
(1.11583 -0.51427 0)
(1.08141 -0.595561 0)
(1.02689 -0.703136 0)
(0.951982 -0.842788 0)
(0.809593 -0.919377 0)
(0.635872 -0.908548 0)
(1.02729 -0.0029583 0)
(1.02897 -0.00998026 0)
(1.03182 -0.0162283 0)
(1.03539 -0.0234998 0)
(1.03966 -0.0308479 0)
(1.04407 -0.0389267 0)
(1.0486 -0.0473141 0)
(1.05305 -0.0560326 0)
(1.05748 -0.0648961 0)
(1.06207 -0.0738936 0)
(1.06713 -0.0831316 0)
(1.07302 -0.0929465 0)
(1.08003 -0.103887 0)
(1.08829 -0.116685 0)
(1.09768 -0.132156 0)
(1.10793 -0.15111 0)
(1.11881 -0.174316 0)
(1.13005 -0.202524 0)
(1.14099 -0.23645 0)
(1.15072 -0.276856 0)
(1.15827 -0.324594 0)
(1.1622 -0.38029 0)
(1.16186 -0.445514 0)
(1.15669 -0.524605 0)
(1.1404 -0.617891 0)
(1.10764 -0.708195 0)
(1.05466 -0.776467 0)
(0.981048 -0.890846 0)
(0.809098 -1.07795 0)
(1.02755 -0.0029541 0)
(1.02925 -0.00995968 0)
(1.03214 -0.0162035 0)
(1.03576 -0.0234745 0)
(1.04011 -0.0308301 0)
(1.04459 -0.0389271 0)
(1.04921 -0.0473321 0)
(1.05373 -0.0560657 0)
(1.05824 -0.064922 0)
(1.06293 -0.0738741 0)
(1.06812 -0.0830076 0)
(1.07421 -0.0926444 0)
(1.08155 -0.103327 0)
(1.0903 -0.115795 0)
(1.10041 -0.130886 0)
(1.11168 -0.149443 0)
(1.12392 -0.172275 0)
(1.137 -0.200186 0)
(1.15032 -0.233928 0)
(1.16304 -0.274256 0)
(1.17475 -0.32227 0)
(1.18444 -0.378945 0)
(1.19062 -0.445321 0)
(1.19534 -0.526239 0)
(1.19656 -0.626046 0)
(1.17164 -0.737291 0)
(1.11917 -0.901084 0)
(1.05846 -1.20767 0)
(0.759382 -1.35699 0)
(0.999195 -0.00224634 0)
(0.99929 -0.00211611 0)
(0.999296 -0.00198254 0)
(0.999215 -0.00184449 0)
(0.999041 -0.00170093 0)
(0.998761 -0.00155076 0)
(0.998355 -0.00139321 0)
(0.997797 -0.00122817 0)
(0.99706 -0.00105642 0)
(0.996119 -0.00088011 0)
(0.994959 -0.00070306 0)
(0.993577 -0.000531031 0)
(0.991996 -0.000371724 0)
(0.990263 -0.000234418 0)
(0.988458 -0.000129183 0)
(0.98669 -6.5658e-05 0)
(0.98509 -5.15228e-05 0)
(0.983796 -9.08978e-05 0)
(0.982939 -0.000182992 0)
(0.997144 -0.00996465 0)
(0.996988 -0.00988294 0)
(0.996885 -0.00980384 0)
(0.996831 -0.00973011 0)
(0.996835 -0.00966279 0)
(0.996914 -0.00960299 0)
(0.997099 -0.0095517 0)
(0.997436 -0.00950945 0)
(0.997978 -0.00947588 0)
(0.998788 -0.00944919 0)
(0.999927 -0.00942538 0)
(1.00144 -0.00939752 0)
(1.00336 -0.00935516 0)
(1.00567 -0.00928418 0)
(1.00828 -0.00916738 0)
(1.01106 -0.00898601 0)
(1.01382 -0.0087222 0)
(1.01632 -0.00836226 0)
(1.01831 -0.0079 0)
(0.995045 -0.0100011 0)
(0.99517 -0.00969177 0)
(0.995245 -0.00937279 0)
(0.995269 -0.00904343 0)
(0.995234 -0.00870344 0)
(0.995125 -0.00835131 0)
(0.994916 -0.00798477 0)
(0.994574 -0.00760098 0)
(0.99405 -0.00719668 0)
(0.993288 -0.00676866 0)
(0.992223 -0.00631453 0)
(0.990789 -0.00583386 0)
(0.988934 -0.00532934 0)
(0.986633 -0.00480804 0)
(0.983909 -0.00428206 0)
(0.98085 -0.00376842 0)
(0.977625 -0.00328765 0)
(0.974473 -0.00286114 0)
(0.971692 -0.00250749 0)
(0.990292 -0.0117878 0)
(0.989913 -0.0114201 0)
(0.989581 -0.0110379 0)
(0.989283 -0.0106438 0)
(0.989013 -0.0102385 0)
(0.988773 -0.00982414 0)
(0.98858 -0.00940395 0)
(0.988462 -0.0089825 0)
(0.988463 -0.0085656 0)
(0.988645 -0.00816019 0)
(0.989085 -0.00777371 0)
(0.989873 -0.00741309 0)
(0.991095 -0.0070833 0)
(0.99282 -0.00678557 0)
(0.995075 -0.00651578 0)
(0.997816 -0.00626328 0)
(1.00092 -0.00601103 0)
(1.00415 -0.00573715 0)
(1.00722 -0.00541827 0)
(0.984564 -0.0135785 0)
(0.984386 -0.0129393 0)
(0.984173 -0.0122931 0)
(0.983937 -0.0116409 0)
(0.983685 -0.0109853 0)
(0.983423 -0.0103283 0)
(0.983151 -0.00967163 0)
(0.98286 -0.00901671 0)
(0.98253 -0.00836398 0)
(0.982127 -0.00771257 0)
(0.981593 -0.00706014 0)
(0.980852 -0.00640295 0)
(0.979808 -0.00573655 0)
(0.978362 -0.00505693 0)
(0.976432 -0.0043621 0)
(0.973983 -0.00365363 0)
(0.971062 -0.00293758 0)
(0.967821 -0.00222422 0)
(0.964525 -0.00152619 0)
(0.977439 -0.0169035 0)
(0.976862 -0.0162326 0)
(0.976348 -0.0155476 0)
(0.97589 -0.0148512 0)
(0.975488 -0.0141426 0)
(0.975148 -0.0134219 0)
(0.974881 -0.0126891 0)
(0.974702 -0.0119444 0)
(0.974636 -0.0111883 0)
(0.974715 -0.0104217 0)
(0.974984 -0.00964614 0)
(0.975501 -0.00886374 0)
(0.976335 -0.00807723 0)
(0.977559 -0.00728922 0)
(0.979231 -0.00650123 0)
(0.98137 -0.00571258 0)
(0.983926 -0.00491966 0)
(0.986752 -0.00411595 0)
(0.989598 -0.00329335 0)
(0.968897 -0.0223435 0)
(0.968482 -0.0213024 0)
(0.968044 -0.0202447 0)
(0.967598 -0.0191715 0)
(0.967155 -0.0180854 0)
(0.966724 -0.0169879 0)
(0.966305 -0.0158803 0)
(0.965894 -0.0147638 0)
(0.965477 -0.0136396 0)
(0.965029 -0.0125083 0)
(0.964507 -0.0113704 0)
(0.963849 -0.0102258 0)
(0.962972 -0.00907414 0)
(0.961781 -0.00791523 0)
(0.960177 -0.00674972 0)
(0.958092 -0.00557977 0)
(0.955524 -0.00440933 0)
(0.952571 -0.00324362 0)
(0.949456 -0.00208748 0)
(0.95992 -0.0286534 0)
(0.95902 -0.0276709 0)
(0.958191 -0.0266628 0)
(0.957428 -0.0256316 0)
(0.95673 -0.0245758 0)
(0.956099 -0.0234944 0)
(0.955544 -0.0223866 0)
(0.955078 -0.0212516 0)
(0.954718 -0.0200888 0)
(0.954488 -0.0188975 0)
(0.954422 -0.0176774 0)
(0.954566 -0.0164278 0)
(0.954978 -0.015148 0)
(0.955726 -0.0138364 0)
(0.956874 -0.0124904 0)
(0.958459 -0.0111051 0)
(0.960454 -0.0096738 0)
(0.962739 -0.00818938 0)
(0.965077 -0.006647 0)
(0.949558 -0.0381049 0)
(0.948736 -0.0365745 0)
(0.947895 -0.0350066 0)
(0.947051 -0.0334028 0)
(0.946218 -0.0317656 0)
(0.945403 -0.0300962 0)
(0.944611 -0.0283952 0)
(0.943838 -0.0266635 0)
(0.943076 -0.0249017 0)
(0.942304 -0.0231102 0)
(0.941483 -0.0212897 0)
(0.94056 -0.0194411 0)
(0.939456 -0.0175662 0)
(0.938074 -0.0156689 0)
(0.936309 -0.0137554 0)
(0.934078 -0.0118362 0)
(0.931359 -0.00992568 0)
(0.928242 -0.00803996 0)
(0.924969 -0.00619254 0)
(0.938729 -0.046953 0)
(0.937269 -0.0455592 0)
(0.93589 -0.044115 0)
(0.934579 -0.0426246 0)
(0.933333 -0.0410871 0)
(0.932153 -0.0395024 0)
(0.931043 -0.0378707 0)
(0.930012 -0.0361921 0)
(0.929073 -0.0344669 0)
(0.928245 -0.0326955 0)
(0.927559 -0.0308787 0)
(0.92706 -0.029017 0)
(0.926811 -0.0271111 0)
(0.926893 -0.0251601 0)
(0.927395 -0.0231609 0)
(0.928389 -0.021106 0)
(0.929885 -0.0189827 0)
(0.931776 -0.0167749 0)
(0.933805 -0.0144686 0)
(0.926787 -0.0602134 0)
(0.925268 -0.0580844 0)
(0.923738 -0.0558879 0)
(0.922216 -0.0536275 0)
(0.920716 -0.0513062 0)
(0.919248 -0.0489251 0)
(0.917816 -0.0464851 0)
(0.916421 -0.0439872 0)
(0.915061 -0.0414328 0)
(0.91372 -0.0388238 0)
(0.912375 -0.0361629 0)
(0.910981 -0.0334536 0)
(0.909468 -0.0307012 0)
(0.907741 -0.0279132 0)
(0.905682 -0.025102 0)
(0.903174 -0.0222861 0)
(0.900158 -0.0194921 0)
(0.896699 -0.0167523 0)
(0.893063 -0.0140975 0)
(0.914318 -0.0717301 0)
(0.911987 -0.0697656 0)
(0.909763 -0.0677031 0)
(0.907632 -0.0655526 0)
(0.905586 -0.0633195 0)
(0.903625 -0.0610106 0)
(0.901754 -0.0586335 0)
(0.899981 -0.0561961 0)
(0.898318 -0.0537058 0)
(0.896785 -0.0511697 0)
(0.89541 -0.0485938 0)
(0.894238 -0.0459832 0)
(0.893335 -0.0433406 0)
(0.892793 -0.0406656 0)
(0.892728 -0.0379521 0)
(0.893256 -0.0351848 0)
(0.894437 -0.0323355 0)
(0.896193 -0.0293637 0)
(0.898224 -0.026225 0)
(0.900695 -0.0891062 0)
(0.898111 -0.086218 0)
(0.895554 -0.083227 0)
(0.893052 -0.0801408 0)
(0.890627 -0.0769635 0)
(0.888291 -0.0736958 0)
(0.886055 -0.0703382 0)
(0.883922 -0.0668911 0)
(0.88189 -0.0633549 0)
(0.879949 -0.0597306 0)
(0.878076 -0.0560197 0)
(0.876229 -0.0522247 0)
(0.874339 -0.0483501 0)
(0.872296 -0.0444037 0)
(0.869953 -0.0404 0)
(0.867134 -0.0363652 0)
(0.863691 -0.0323431 0)
(0.859617 -0.0283972 0)
(0.855185 -0.0246012 0)
(0.886638 -0.104252 0)
(0.883037 -0.101456 0)
(0.879615 -0.0984613 0)
(0.876355 -0.0952935 0)
(0.873251 -0.0919691 0)
(0.870299 -0.0885098 0)
(0.867504 -0.0849375 0)
(0.864869 -0.0812743 0)
(0.862403 -0.0775425 0)
(0.86012 -0.0737631 0)
(0.858039 -0.0699565 0)
(0.856197 -0.0661412 0)
(0.854655 -0.0623334 0)
(0.853509 -0.0585453 0)
(0.852903 -0.054781 0)
(0.853019 -0.0510307 0)
(0.854021 -0.0472595 0)
(0.855935 -0.0433986 0)
(0.858465 -0.0393484 0)
(0.870914 -0.12623 0)
(0.866703 -0.122205 0)
(0.862612 -0.118011 0)
(0.858677 -0.113653 0)
(0.854932 -0.10914 0)
(0.851402 -0.104476 0)
(0.848101 -0.099664 0)
(0.845037 -0.0947115 0)
(0.842212 -0.089625 0)
(0.839619 -0.0844122 0)
(0.837238 -0.0790809 0)
(0.835032 -0.0736391 0)
(0.832933 -0.0680952 0)
(0.83083 -0.0624599 0)
(0.828545 -0.0567491 0)
(0.825824 -0.0509923 0)
(0.822372 -0.0452471 0)
(0.817981 -0.039614 0)
(0.812786 -0.0342413 0)
(0.854543 -0.146425 0)
(0.848925 -0.142289 0)
(0.843612 -0.137718 0)
(0.838604 -0.132798 0)
(0.833912 -0.127562 0)
(0.829535 -0.122063 0)
(0.825488 -0.116351 0)
(0.821778 -0.110479 0)
(0.818417 -0.104498 0)
(0.815409 -0.0984635 0)
(0.812767 -0.0924295 0)
(0.81051 -0.0864513 0)
(0.808676 -0.0805832 0)
(0.807343 -0.0748769 0)
(0.806652 -0.0693761 0)
(0.806832 -0.0641091 0)
(0.80818 -0.0590661 0)
(0.81094 -0.0541761 0)
(0.815001 -0.0492725 0)
(0.835849 -0.174211 0)
(0.828914 -0.168315 0)
(0.822276 -0.162092 0)
(0.816012 -0.1555 0)
(0.810164 -0.148571 0)
(0.8048 -0.141333 0)
(0.799948 -0.133814 0)
(0.795636 -0.126059 0)
(0.791877 -0.118112 0)
(0.788677 -0.110019 0)
(0.786021 -0.101825 0)
(0.783879 -0.0935666 0)
(0.78219 -0.085278 0)
(0.78084 -0.0769847 0)
(0.779638 -0.0687088 0)
(0.778264 -0.0604735 0)
(0.776243 -0.0523358 0)
(0.773018 -0.0444084 0)
(0.768224 -0.0369152 0)
(0.816162 -0.201754 0)
(0.806953 -0.195452 0)
(0.798312 -0.188203 0)
(0.790226 -0.180213 0)
(0.782819 -0.171585 0)
(0.776099 -0.162404 0)
(0.770135 -0.152794 0)
(0.764954 -0.142858 0)
(0.760589 -0.132713 0)
(0.757043 -0.122479 0)
(0.754318 -0.112283 0)
(0.752403 -0.102255 0)
(0.751292 -0.0925329 0)
(0.751001 -0.0832563 0)
(0.751604 -0.0745628 0)
(0.753292 -0.0665875 0)
(0.756437 -0.0594085 0)
(0.761526 -0.0530451 0)
(0.769002 -0.0473478 0)
(0.793594 -0.238163 0)
(0.781872 -0.229372 0)
(0.770616 -0.219747 0)
(0.760233 -0.209284 0)
(0.750693 -0.197962 0)
(0.742205 -0.185935 0)
(0.734828 -0.173289 0)
(0.728646 -0.160172 0)
(0.723694 -0.146731 0)
(0.720008 -0.133121 0)
(0.717579 -0.11949 0)
(0.716379 -0.10598 0)
(0.716341 -0.0927092 0)
(0.717346 -0.0797742 0)
(0.719186 -0.0672456 0)
(0.721502 -0.0551417 0)
(0.723652 -0.04353 0)
(0.724774 -0.0324826 0)
(0.723483 -0.0221997 0)
(0.770357 -0.276757 0)
(0.754333 -0.267033 0)
(0.739661 -0.255573 0)
(0.725889 -0.242381 0)
(0.713544 -0.227916 0)
(0.702649 -0.212264 0)
(0.693391 -0.1957 0)
(0.685845 -0.178455 0)
(0.680107 -0.160772 0)
(0.676184 -0.142906 0)
(0.674087 -0.125124 0)
(0.673773 -0.107695 0)
(0.675178 -0.0909059 0)
(0.678221 -0.0750595 0)
(0.682846 -0.0604616 0)
(0.68908 -0.0474959 0)
(0.697291 -0.0364044 0)
(0.707869 -0.0274824 0)
(0.722223 -0.0209124 0)
(0.743291 -0.325984 0)
(0.723296 -0.313423 0)
(0.703566 -0.298266 0)
(0.685735 -0.281427 0)
(0.669625 -0.262572 0)
(0.655657 -0.242162 0)
(0.643975 -0.220482 0)
(0.634777 -0.197843 0)
(0.628086 -0.174611 0)
(0.624005 -0.151126 0)
(0.622506 -0.127729 0)
(0.623569 -0.104761 0)
(0.627108 -0.0825408 0)
(0.632989 -0.0613503 0)
(0.640978 -0.0414602 0)
(0.650732 -0.0229001 0)
(0.661241 -0.00589834 0)
(0.671847 0.00959975 0)
(0.679596 0.0237204 0)
(0.717864 -0.381245 0)
(0.689247 -0.366062 0)
(0.663702 -0.348183 0)
(0.640034 -0.326566 0)
(0.619127 -0.302336 0)
(0.601236 -0.275953 0)
(0.586651 -0.247786 0)
(0.575373 -0.218445 0)
(0.567634 -0.18834 0)
(0.563352 -0.157932 0)
(0.562583 -0.127671 0)
(0.565272 -0.0980008 0)
(0.571353 -0.0693983 0)
(0.580708 -0.0424024 0)
(0.593208 -0.0175199 0)
(0.608518 0.00428037 0)
(0.62739 0.022592 0)
(0.648969 0.0363022 0)
(0.676333 0.0440659 0)
(0.686049 -0.448424 0)
(0.650916 -0.43064 0)
(0.617043 -0.406838 0)
(0.586449 -0.378984 0)