/*--------------------------------*- C++ -*----------------------------------*\
  =========                 |
  \\      /  F ield         | OpenFOAM: The Open Source CFD Toolbox
   \\    /   O peration     | Website:  https://openfoam.org
    \\  /    A nd           | Version:  10
     \\/     M anipulation  |
\*---------------------------------------------------------------------------*/
FoamFile
{
    format      ascii;
    class       volVectorField;
    location    "0";
    object      U;
}
// * * * * * * * * * * * * * * * * * * * * * * * * * * * * * * * * * * * * * //

dimensions      [0 1 -1 0 0 0 0];

internalField   nonuniform List<vector> 
18483
(
(1 -0.00021365 0)
(1 -0.00076706 0)
(0.999999 -0.00122783 0)
(0.999995 -0.00172736 0)
(0.99999 -0.00221052 0)
(0.999985 -0.00268567 0)
(0.999979 -0.00313426 0)
(0.999972 -0.00354368 0)
(0.999964 -0.00390258 0)
(0.999955 -0.00420466 0)
(0.999944 -0.0044501 0)
(0.999929 -0.0046494 0)
(0.999904 -0.00483007 0)
(0.999863 -0.00504831 0)
(0.999794 -0.00536346 0)
(0.999678 -0.00579977 0)
(0.999445 -0.00628957 0)
(0.998825 -0.00670109 0)
(0.997208 -0.00690161 0)
(0.994113 -0.00676689 0)
(0.990468 -0.00632265 0)
(0.988563 -0.00579539 0)
(0.989506 -0.00534133 0)
(0.992096 -0.00495823 0)
(0.994705 -0.00463975 0)
(0.996623 -0.00438363 0)
(0.997838 -0.0041787 0)
(0.998549 -0.00401504 0)
(0.998939 -0.00388362 0)
(1.00065 -0.000597406 0)
(1.00069 -0.00213931 0)
(1.00076 -0.003443 0)
(1.00085 -0.00488435 0)
(1.00093 -0.00630594 0)
(1.001 -0.00773741 0)
(1.00104 -0.00912183 0)
(1.00105 -0.0104182 0)
(1.00102 -0.011583 0)
(1.00095 -0.0125857 0)
(1.00086 -0.0134155 0)
(1.00077 -0.0140867 0)
(1.00074 -0.0146001 0)
(1.00082 -0.014881 0)
(1.00102 -0.014817 0)
(1.00125 -0.0143443 0)
(1.00141 -0.0135773 0)
(1.0015 -0.0127619 0)
(1.00184 -0.012131 0)
(1.00313 -0.0119485 0)
(1.00541 -0.0123368 0)
(1.00703 -0.0129607 0)
(1.0064 -0.0134056 0)
(1.00415 -0.0136528 0)
(1.00183 -0.0137759 0)
(1.00016 -0.0138065 0)
(0.99915 -0.0137782 0)
(0.99857 -0.0137138 0)
(0.99824 -0.0136292 0)
(1.00181 -0.000907071 0)
(1.00192 -0.00323386 0)
(1.00215 -0.00521815 0)
(1.0024 -0.00744212 0)
(1.00267 -0.00966123 0)
(1.0029 -0.0119331 0)
(1.00307 -0.0141681 0)
(1.00313 -0.0163015 0)
(1.00306 -0.018255 0)
(1.00288 -0.0199672 0)
(1.00258 -0.0213808 0)
(1.00223 -0.0224451 0)
(1.00187 -0.0231261 0)
(1.00151 -0.0234572 0)
(1.00106 -0.0236252 0)
(1.00043 -0.0239141 0)
(0.999665 -0.0243711 0)
(0.998754 -0.0248112 0)
(0.997518 -0.0250829 0)
(0.995626 -0.0250353 0)
(0.993051 -0.0245272 0)
(0.990731 -0.0236998 0)
(0.990005 -0.0229494 0)
(0.990905 -0.0223359 0)
(0.992312 -0.0217507 0)
(0.993444 -0.021207 0)
(0.994165 -0.0207227 0)
(0.994577 -0.0203031 0)
(0.994794 -0.0199477 0)
(1.00317 -0.00116485 0)
(1.00338 -0.00412929 0)
(1.00377 -0.00666066 0)
(1.00424 -0.00951804 0)
(1.00474 -0.0123811 0)
(1.00519 -0.0153411 0)
(1.00552 -0.0182882 0)
(1.00567 -0.0211455 0)
(1.00559 -0.0238066 0)
(1.00527 -0.0261792 0)
(1.00473 -0.0281789 0)
(1.00399 -0.0297577 0)
(1.00308 -0.0309483 0)
(1.00203 -0.0318486 0)
(1.0009 -0.0324858 0)
(0.999834 -0.0326025 0)
(0.998933 -0.0319912 0)
(0.998278 -0.0308726 0)
(0.998172 -0.0296665 0)
(0.999131 -0.0287211 0)
(1.00116 -0.0282376 0)
(1.00296 -0.0281564 0)
(1.00281 -0.0280644 0)
(1.00062 -0.0278136 0)
(0.99785 -0.0275745 0)
(0.995633 -0.0273589 0)
(0.994141 -0.0271302 0)
(0.993177 -0.0268832 0)
(0.992539 -0.0266221 0)
(1.00456 -0.00138893 0)
(1.00488 -0.00489251 0)
(1.00546 -0.00787373 0)
(1.00616 -0.0112438 0)
(1.00692 -0.0146155 0)
(1.00763 -0.0181199 0)
(1.00819 -0.0216361 0)
(1.0085 -0.0250857 0)
(1.00848 -0.0283428 0)
(1.00811 -0.0312956 0)
(1.00738 -0.0338532 0)
(1.00632 -0.0359623 0)
(1.00501 -0.0376084 0)
(1.00354 -0.0387136 0)
(1.00201 -0.0392207 0)
(1.00042 -0.0393155 0)
(0.998674 -0.0393557 0)
(0.996864 -0.0394979 0)
(0.995111 -0.039507 0)
(0.993141 -0.0390989 0)
(0.990348 -0.0381914 0)
(0.986923 -0.0369319 0)
(0.984532 -0.0357586 0)
(0.9843 -0.0348419 0)
(0.985269 -0.033926 0)
(0.986119 -0.0329684 0)
(0.986507 -0.0320637 0)
(0.986576 -0.0312511 0)
(0.98648 -0.0305441 0)
(1.00596 -0.00158464 0)
(1.00639 -0.00554705 0)
(1.00715 -0.00890084 0)
(1.00809 -0.0126864 0)
(1.00914 -0.0164589 0)
(1.01015 -0.0203935 0)
(1.01098 -0.0243668 0)
(1.0115 -0.0283102 0)
(1.01161 -0.0320945 0)
(1.01122 -0.0355992 0)
(1.01033 -0.038717 0)
(1.00898 -0.0413506 0)
(1.00724 -0.0434412 0)
(1.00521 -0.0449627 0)
(1.00289 -0.0459895 0)
(1.00033 -0.0466687 0)
(0.997691 -0.0468468 0)
(0.995199 -0.0462367 0)
(0.993184 -0.0449555 0)
(0.992371 -0.0434152 0)
(0.993538 -0.0419988 0)
(0.996011 -0.0408471 0)
(0.997161 -0.0396971 0)
(0.995162 -0.0384732 0)
(0.991358 -0.03753 0)
(0.987936 -0.0369107 0)
(0.985506 -0.0364169 0)
(0.983814 -0.0359605 0)
(0.982595 -0.0355148 0)
(1.00739 -0.00175308 0)
(1.00792 -0.00610164 0)
(1.00885 -0.00976418 0)
(1.01003 -0.0138896 0)
(1.01136 -0.0179841 0)
(1.01267 -0.0222708 0)
(1.0138 -0.026632 0)
(1.01458 -0.0310223 0)
(1.01486 -0.0353204 0)
(1.01454 -0.0394014 0)
(1.01358 -0.0431333 0)
(1.01201 -0.0463893 0)
(1.00993 -0.0490978 0)
(1.00742 -0.0512387 0)
(1.00461 -0.0527493 0)
(1.00163 -0.0536151 0)
(0.998502 -0.054014 0)
(0.995136 -0.0542903 0)
(0.991554 -0.0545648 0)
(0.987632 -0.054504 0)
(0.982595 -0.0537811 0)
(0.976271 -0.0525042 0)
(0.971215 -0.0512322 0)
(0.97033 -0.0501736 0)
(0.972328 -0.0488977 0)
(0.974092 -0.0473378 0)
(0.974766 -0.0458025 0)
(0.974802 -0.0444268 0)
(0.974551 -0.043241 0)
(1.00882 -0.00189593 0)
(1.00945 -0.00656546 0)
(1.01055 -0.0104846 0)
(1.01195 -0.0148921 0)
(1.01357 -0.0192529 0)
(1.01519 -0.02384 0)
(1.01665 -0.0285465 0)
(1.01774 -0.0333574 0)
(1.01828 -0.0381631 0)
(1.01814 -0.0428388 0)
(1.01726 -0.0472344 0)
(1.01561 -0.0511972 0)
(1.01329 -0.0545952 0)
(1.01041 -0.0573365 0)
(1.00708 -0.0593483 0)
(1.00332 -0.0606875 0)
(0.999159 -0.061468 0)
(0.994659 -0.0614703 0)
(0.990216 -0.060453 0)
(0.986917 -0.058737 0)
(0.986524 -0.0569369 0)
(0.989429 -0.055391 0)
(0.991916 -0.0538002 0)
(0.989335 -0.0520116 0)
(0.982886 -0.0506551 0)
(0.977129 -0.049916 0)
(0.973397 -0.0493618 0)
(0.970902 -0.0488076 0)
(0.969112 -0.0482334 0)
(1.01022 -0.0020157 0)
(1.01095 -0.00694939 0)
(1.01221 -0.0110823 0)
(1.01383 -0.0157266 0)
(1.01572 -0.0203121 0)
(1.01766 -0.0251605 0)
(1.01947 -0.0301777 0)
(1.02093 -0.0353823 0)
(1.02182 -0.0406859 0)
(1.02197 -0.0459802 0)
(1.02123 -0.051114 0)
(1.01956 -0.0559162 0)
(1.01699 -0.0602091 0)
(1.01363 -0.063872 0)
(1.0096 -0.0668417 0)
(1.00504 -0.0690549 0)
(1.00014 -0.0705366 0)
(0.994936 -0.0715549 0)
(0.989441 -0.0725737 0)
(0.983477 -0.0736579 0)
(0.975833 -0.0741839 0)
(0.965547 -0.0736347 0)
(0.956175 -0.072452 0)
(0.953787 -0.0712538 0)
(0.957309 -0.0696223 0)
(0.96034 -0.0673298 0)
(0.961047 -0.0649952 0)
(0.96074 -0.0629203 0)
(0.960075 -0.061126 0)
(1.01157 -0.00211529 0)
(1.01238 -0.00726472 0)
(1.01379 -0.0115758 0)
(1.01561 -0.0164198 0)
(1.01776 -0.0211962 0)
(1.02003 -0.0262718 0)
(1.02221 -0.0315661 0)
(1.02407 -0.0371359 0)
(1.02537 -0.0429255 0)
(1.02588 -0.0488596 0)
(1.02541 -0.0547994 0)
(1.02388 -0.0605615 0)
(1.02126 -0.0659255 0)
(1.01765 -0.0706744 0)
(1.01323 -0.0746043 0)
(1.00817 -0.0775137 0)
(1.00258 -0.0793519 0)
(0.996521 -0.0801215 0)
(0.990335 -0.0796432 0)
(0.984981 -0.0779175 0)
(0.982481 -0.0756058 0)
(0.984547 -0.0736969 0)
(0.987636 -0.0723576 0)
(0.983986 -0.0708755 0)
(0.973501 -0.0695198 0)
(0.964135 -0.0689064 0)
(0.958693 -0.0684673 0)
(0.955168 -0.0678446 0)
(0.952592 -0.0671171 0)
(1.01284 -0.00219742 0)
(1.01373 -0.0075215 0)
(1.01527 -0.0119805 0)
(1.01729 -0.0169928 0)
(1.01969 -0.0219301 0)
(1.02226 -0.0272002 0)
(1.02481 -0.0327358 0)
(1.02711 -0.0386326 0)
(1.02888 -0.0448728 0)
(1.02988 -0.0514204 0)
(1.02989 -0.0581589 0)
(1.02873 -0.0649033 0)
(1.02633 -0.0714024 0)
(1.0227 -0.0773699 0)
(1.01792 -0.0825608 0)
(1.01208 -0.0868225 0)
(1.00537 -0.0901597 0)
(0.998067 -0.0927941 0)
(0.99045 -0.0952801 0)
(0.982413 -0.0980551 0)
(0.972598 -0.100549 0)
(0.959092 -0.101429 0)
(0.944935 -0.100225 0)
(0.939052 -0.0982445 0)
(0.942818 -0.0961089 0)
(0.946557 -0.0931298 0)
(0.946351 -0.0898967 0)
(0.944915 -0.0870849 0)
(0.94329 -0.0846447 0)
(1.01401 -0.00226441 0)
(1.01498 -0.00772787 0)
(1.01664 -0.0123085 0)
(1.01884 -0.017461 0)
(1.02148 -0.0225312 0)
(1.02435 -0.0279629 0)
(1.02728 -0.0336993 0)
(1.03003 -0.0398705 0)
(1.03234 -0.046497 0)
(1.03394 -0.0535884 0)
(1.03456 -0.0610706 0)
(1.03394 -0.0687896 0)
(1.0319 -0.0765081 0)
(1.02835 -0.0839273 0)
(1.02328 -0.0907425 0)
(1.01691 -0.096648 0)
(1.00961 -0.101355 0)
(1.00183 -0.104597 0)
(0.993976 -0.105981 0)
(0.986517 -0.105144 0)
(0.980845 -0.102548 0)
(0.979621 -0.0998035 0)
(0.981809 -0.0985085 0)
(0.978171 -0.0979512 0)
(0.964449 -0.0967876 0)
(0.95056 -0.0960214 0)
(0.942817 -0.0956726 0)
(0.937899 -0.0948788 0)
(0.934102 -0.0938387 0)
(1.0151 -0.00231832 0)
(1.01613 -0.00789078 0)
(1.01791 -0.0125698 0)
(1.02028 -0.0178371 0)
(1.02314 -0.0230138 0)
(1.02631 -0.0285745 0)
(1.0296 -0.0344685 0)
(1.03281 -0.0408549 0)
(1.03569 -0.0477924 0)
(1.03793 -0.0553451 0)
(1.03923 -0.0635003 0)
(1.03928 -0.0721607 0)
(1.0378 -0.0811218 0)
(1.03463 -0.0900671 0)
(1.02971 -0.0985936 0)
(1.02319 -0.106274 0)
(1.01534 -0.112808 0)
(1.00647 -0.118174 0)
(0.996725 -0.122811 0)
(0.986069 -0.127567 0)
(0.973822 -0.132555 0)
(0.958059 -0.136101 0)
(0.939514 -0.136151 0)
(0.927288 -0.13344 0)
(0.927948 -0.130519 0)
(0.931774 -0.127116 0)
(0.930261 -0.122828 0)
(0.926955 -0.119059 0)
(0.923923 -0.115864 0)
(1.0161 -0.00236119 0)
(1.01719 -0.00801688 0)
(1.01908 -0.0127739 0)
(1.0216 -0.0181336 0)
(1.02467 -0.0233929 0)
(1.02811 -0.0290521 0)
(1.03176 -0.0350626 0)
(1.03541 -0.0416061 0)
(1.03885 -0.0487783 0)
(1.04176 -0.0566994 0)
(1.04384 -0.0654225 0)
(1.04473 -0.0749157 0)
(1.0441 -0.0850217 0)
(1.04167 -0.0954438 0)
(1.03724 -0.105779 0)
(1.03077 -0.115596 0)
(1.02251 -0.124519 0)
(1.01295 -0.132148 0)
(1.00264 -0.137762 0)
(0.992179 -0.140267 0)
(0.982465 -0.139197 0)
(0.975972 -0.136016 0)
(0.974845 -0.133738 0)
(0.972026 -0.133876 0)
(0.957296 -0.133733 0)
(0.937829 -0.132648 0)
(0.92603 -0.13228 0)
(0.919141 -0.131362 0)
(0.913456 -0.129746 0)
(1.01701 -0.00239496 0)
(1.01816 -0.00811254 0)
(1.02016 -0.0129303 0)
(1.02282 -0.018363 0)
(1.02608 -0.0236839 0)
(1.02977 -0.0294148 0)
(1.03374 -0.0355047 0)
(1.03781 -0.042151 0)
(1.04179 -0.0494802 0)
(1.04541 -0.057663 0)
(1.04834 -0.0668165 0)
(1.05021 -0.0769854 0)
(1.05063 -0.0880945 0)
(1.04918 -0.0999271 0)
(1.0455 -0.112128 0)
(1.03947 -0.124208 0)
(1.03131 -0.135589 0)
(1.02145 -0.14569 0)
(1.01 -0.154176 0)
(0.996724 -0.161743 0)
(0.981231 -0.169654 0)
(0.962789 -0.177299 0)
(0.940541 -0.181439 0)
(0.920108 -0.179778 0)
(0.912858 -0.175525 0)
(0.915196 -0.171504 0)
(0.912753 -0.166156 0)
(0.90656 -0.160782 0)
(0.901384 -0.156497 0)
(1.01784 -0.00242142 0)
(1.01904 -0.00818367 0)
(1.02113 -0.013048 0)
(1.02392 -0.0185371 0)
(1.02736 -0.023902 0)
(1.03128 -0.029682 0)
(1.03554 -0.0358186 0)
(1.04001 -0.0425184 0)
(1.04452 -0.0499302 0)
(1.04882 -0.0582682 0)
(1.05262 -0.0677131 0)
(1.05553 -0.0783986 0)
(1.05708 -0.090354 0)
(1.0568 -0.103459 0)
(1.05423 -0.117411 0)
(1.04912 -0.131705 0)
(1.04149 -0.145723 0)
(1.0315 -0.15889 0)
(1.01931 -0.17049 0)
(1.00536 -0.179246 0)
(0.990928 -0.183337 0)
(0.978054 -0.182344 0)
(0.970305 -0.179372 0)
(0.966224 -0.17936 0)
(0.95253 -0.181416 0)
(0.927397 -0.18096 0)
(0.90804 -0.18004 0)
(0.897737 -0.179088 0)
(0.889157 -0.176498 0)
(1.01859 -0.00244214 0)
(1.01985 -0.00823546 0)
(1.02203 -0.0131346 0)
(1.02493 -0.0186667 0)
(1.02853 -0.0240611 0)
(1.03265 -0.0298716 0)
(1.03719 -0.0360278 0)
(1.04202 -0.0427393 0)
(1.04701 -0.0501698 0)
(1.05196 -0.0585707 0)
(1.05659 -0.0681822 0)
(1.06053 -0.0792254 0)
(1.06331 -0.0918325 0)
(1.06441 -0.105984 0)
(1.0633 -0.121477 0)
(1.05951 -0.137889 0)
(1.05282 -0.154606 0)
(1.04331 -0.170902 0)
(1.03104 -0.185843 0)
(1.01583 -0.198759 0)
(0.997322 -0.210792 0)
(0.975302 -0.223603 0)
(0.949381 -0.234724 0)
(0.920847 -0.238232 0)
(0.900599 -0.233926 0)
(0.89631 -0.228502 0)
(0.893191 -0.222689 0)
(0.883076 -0.215135 0)
(0.873937 -0.208972 0)
(1.01929 -0.0024584 0)
(1.02058 -0.0082723 0)
(1.02284 -0.0131972 0)
(1.02586 -0.0187612 0)
(1.02961 -0.0241736 0)
(1.0339 -0.0300003 0)
(1.03868 -0.0361544 0)
(1.04383 -0.0428449 0)
(1.04925 -0.0502437 0)
(1.0548 -0.0586306 0)
(1.06022 -0.0682946 0)
(1.0652 -0.0795328 0)
(1.06929 -0.0925771 0)
(1.07192 -0.107525 0)
(1.07246 -0.124314 0)
(1.07032 -0.142649 0)
(1.06508 -0.161928 0)
(1.0566 -0.181396 0)
(1.0447 -0.20023 0)
(1.02902 -0.217254 0)
(1.01027 -0.230423 0)
(0.99102 -0.237059 0)
(0.974802 -0.23697 0)
(0.964353 -0.236097 0)
(0.951034 -0.240476 0)
(0.922248 -0.243797 0)
(0.890835 -0.242446 0)
(0.87272 -0.24116 0)
(0.859627 -0.237661 0)
(1.01993 -0.00247122 0)
(1.02126 -0.00829775 0)
(1.0236 -0.0132414 0)
(1.02671 -0.0188282 0)
(1.03059 -0.0242499 0)
(1.03504 -0.0300821 0)
(1.04003 -0.036218 0)
(1.04546 -0.0428632 0)
(1.05128 -0.0501913 0)
(1.05736 -0.0585 0)
(1.06354 -0.0681152 0)
(1.06952 -0.079399 0)
(1.07491 -0.0926825 0)
(1.0791 -0.108188 0)
(1.08142 -0.125994 0)
(1.08119 -0.145952 0)
(1.07783 -0.167556 0)
(1.07093 -0.190111 0)
(1.06012 -0.212806 0)
(1.04484 -0.234338 0)
(1.02467 -0.253776 0)
(0.999517 -0.272902 0)
(0.969587 -0.293176 0)
(0.934278 -0.308579 0)
(0.898356 -0.3102 0)
(0.877953 -0.303144 0)
(0.870957 -0.296965 0)
(0.856985 -0.288211 0)
(0.840259 -0.27873 0)
(1.02051 -0.00248137 0)
(1.02188 -0.00831463 0)
(1.02428 -0.0132717 0)
(1.02748 -0.0188744 0)
(1.03148 -0.0242987 0)
(1.03608 -0.0301287 0)
(1.04125 -0.0362344 0)
(1.04693 -0.0428169 0)
(1.05309 -0.0500453 0)
(1.05967 -0.0582255 0)
(1.06653 -0.0677115 0)
(1.07345 -0.0789201 0)
(1.08006 -0.0922732 0)
(1.08579 -0.108109 0)
(1.08996 -0.126633 0)
(1.09185 -0.147864 0)
(1.09071 -0.171473 0)
(1.08593 -0.196858 0)
(1.07694 -0.22333 0)
(1.06283 -0.249809 0)
(1.04294 -0.274443 0)
(1.01888 -0.294124 0)
(0.994394 -0.304723 0)
(0.973109 -0.306914 0)
(0.95517 -0.312006 0)
(0.925753 -0.322924 0)
(0.880963 -0.325778 0)
(0.845718 -0.323365 0)
(0.824358 -0.31992 0)
(1.02104 -0.00248942 0)
(1.02244 -0.00832511 0)
(1.02491 -0.0132917 0)
(1.02818 -0.0189047 0)
(1.03229 -0.0243268 0)
(1.03702 -0.0301491 0)
(1.04234 -0.0362165 0)
(1.04825 -0.0427249 0)
(1.05471 -0.0498337 0)
(1.06172 -0.0578501 0)
(1.06919 -0.0671491 0)
(1.07696 -0.0781896 0)
(1.08471 -0.0914667 0)
(1.09194 -0.10742 0)
(1.09797 -0.126375 0)
(1.10207 -0.148523 0)
(1.10341 -0.173743 0)
(1.1012 -0.201584 0)
(1.09467 -0.231522 0)
(1.08267 -0.262639 0)
(1.06403 -0.293105 0)
(1.03843 -0.322192 0)
(1.00578 -0.352752 0)
(0.96517 -0.384535 0)
(0.916034 -0.404575 0)
(0.870816 -0.40306 0)
(0.847701 -0.394982 0)
(0.830038 -0.388064 0)
(0.802128 -0.375113 0)
(1.02152 -0.00249586 0)
(1.02295 -0.00833092 0)
(1.02548 -0.0133043 0)
(1.02881 -0.0189232 0)
(1.03303 -0.0243398 0)
(1.03786 -0.0301508 0)
(1.04333 -0.0361749 0)
(1.04942 -0.0426028 0)
(1.05614 -0.0495803 0)
(1.06352 -0.0574108 0)
(1.07154 -0.0664822 0)
(1.08008 -0.0772839 0)
(1.08889 -0.0903652 0)
(1.09755 -0.106257 0)
(1.1054 -0.125393 0)
(1.11169 -0.148118 0)
(1.11563 -0.174535 0)
(1.11631 -0.204391 0)
(1.11276 -0.237343 0)
(1.10363 -0.272829 0)
(1.08732 -0.309445 0)
(1.06347 -0.344848 0)
(1.03451 -0.374464 0)
(1.00332 -0.391353 0)
(0.972981 -0.398588 0)
(0.941118 -0.415852 0)
(0.889026 -0.434765 0)
(0.826499 -0.435192 0)
(0.784806 -0.431679 0)
(1.02195 -0.00250104 0)
(1.02341 -0.00833339 0)
(1.02598 -0.0133115 0)
(1.02938 -0.0189332 0)
(1.03368 -0.0243421 0)
(1.0386 -0.0301392 0)
(1.0442 -0.0361176 0)
(1.05045 -0.0424628 0)
(1.0574 -0.0493038 0)
(1.06511 -0.056936 0)
(1.07361 -0.0657526 0)
(1.08284 -0.0762642 0)
(1.09263 -0.0890599 0)
(1.10261 -0.104748 0)
(1.11217 -0.12386 0)
(1.12059 -0.146862 0)
(1.12712 -0.174065 0)
(1.13087 -0.205457 0)
(1.1307 -0.240885 0)
(1.12511 -0.280107 0)
(1.11239 -0.322079 0)
(1.0913 -0.364735 0)
(1.06076 -0.40799 0)
(1.01899 -0.456374 0)
(0.963603 -0.506682 0)
(0.894879 -0.532943 0)
(0.835714 -0.527535 0)
(0.802756 -0.521768 0)
(0.764819 -0.511828 0)
(1.02233 -0.00250524 0)
(1.02382 -0.00833354 0)
(1.02644 -0.0133149 0)
(1.02988 -0.0189371 0)
(1.03427 -0.0243369 0)
(1.03927 -0.030119 0)
(1.04498 -0.0360512 0)
(1.05137 -0.0423142 0)
(1.05851 -0.0490181 0)
(1.06649 -0.0564475 0)
(1.07541 -0.0649942 0)
(1.08527 -0.0751832 0)
(1.09593 -0.0876331 0)
(1.1071 -0.103012 0)
(1.11826 -0.121936 0)
(1.12869 -0.144965 0)
(1.13775 -0.172584 0)
(1.14462 -0.205032 0)
(1.14809 -0.242363 0)
(1.1465 -0.284598 0)
(1.13806 -0.331341 0)
(1.12121 -0.381392 0)
(1.09484 -0.432091 0)
(1.06044 -0.476374 0)
(1.01996 -0.503078 0)
(0.976772 -0.521967 0)
(0.922792 -0.562722 0)
(0.83639 -0.5899 0)
(0.748903 -0.584745 0)
(1.02268 -0.00250867 0)
(1.02419 -0.00833213 0)
(1.02685 -0.0133157 0)
(1.03034 -0.0189367 0)
(1.03479 -0.0243269 0)
(1.03986 -0.0300934 0)
(1.04567 -0.0359802 0)
(1.05217 -0.0421638 0)
(1.05947 -0.0487334 0)
(1.0677 -0.0559617 0)
(1.07697 -0.0642345 0)
(1.08736 -0.0740848 0)
(1.0988 -0.086152 0)
(1.11104 -0.101146 0)
(1.12366 -0.119755 0)
(1.13599 -0.142614 0)
(1.14745 -0.170339 0)
(1.15735 -0.203387 0)
(1.16455 -0.242058 0)
(1.16723 -0.286608 0)
(1.16359 -0.33707 0)
(1.15243 -0.392917 0)
(1.13128 -0.452339 0)
(1.09542 -0.515624 0)
(1.04286 -0.591909 0)
(0.969933 -0.675413 0)
(0.87066 -0.713407 0)
(0.782595 -0.70424 0)
(0.725747 -0.702799 0)
(1.02298 -0.00251148 0)
(1.02451 -0.00832972 0)
(1.02721 -0.0133147 0)
(1.03074 -0.0189334 0)
(1.03526 -0.0243141 0)
(1.04039 -0.0300649 0)
(1.04627 -0.0359084 0)
(1.05287 -0.0420166 0)
(1.06031 -0.0484576 0)
(1.06874 -0.0554915 0)
(1.07832 -0.0634948 0)
(1.08917 -0.0730029 0)
(1.10128 -0.084669 0)
(1.11448 -0.0992313 0)
(1.12841 -0.117432 0)
(1.1425 -0.139975 0)
(1.15618 -0.167567 0)
(1.16893 -0.200834 0)
(1.17976 -0.240305 0)
(1.18689 -0.286499 0)
(1.18838 -0.339707 0)
(1.18318 -0.400193 0)
(1.16917 -0.468133 0)
(1.142 -0.540664 0)
(1.10183 -0.60689 0)
(1.05042 -0.649647 0)
(0.989763 -0.695129 0)
(0.897574 -0.783901 0)
(0.746834 -0.813811 0)
(1.02326 -0.00251378 0)
(1.0248 -0.00832673 0)
(1.02753 -0.0133125 0)
(1.0311 -0.0189282 0)
(1.03567 -0.0242996 0)
(1.04085 -0.0300352 0)
(1.04681 -0.035838 0)
(1.05348 -0.0418759 0)
(1.06104 -0.0481959 0)
(1.06963 -0.0550457 0)
(1.07947 -0.0627897 0)
(1.09072 -0.0719617 0)
(1.10341 -0.0832225 0)
(1.11746 -0.0973289 0)
(1.13256 -0.115063 0)
(1.14822 -0.137184 0)
(1.16395 -0.164466 0)
(1.17934 -0.197654 0)
(1.19356 -0.237441 0)
(1.20506 -0.284621 0)
(1.21193 -0.339788 0)
(1.21288 -0.403456 0)
(1.20705 -0.476829 0)
(1.18964 -0.559283 0)
(1.14967 -0.650342 0)
(1.08746 -0.770688 0)
(1.00231 -0.923194 0)
(0.845678 -0.996734 0)
(0.66571 -0.977367 0)
(1.0235 -0.00251566 0)
(1.02506 -0.00832346 0)
(1.02781 -0.0133096 0)
(1.03142 -0.018922 0)
(1.03603 -0.0242845 0)
(1.04126 -0.0300057 0)
(1.04728 -0.035771 0)
(1.05402 -0.0417441 0)
(1.06167 -0.0479519 0)
(1.0704 -0.0546298 0)
(1.08046 -0.0621289 0)
(1.09204 -0.0709782 0)
(1.10525 -0.0818415 0)
(1.12003 -0.0954879 0)
(1.13615 -0.112726 0)
(1.1532 -0.134356 0)
(1.17079 -0.161204 0)
(1.1886 -0.1941 0)
(1.20592 -0.233837 0)
(1.22147 -0.281397 0)
(1.23373 -0.337781 0)
(1.24114 -0.4036 0)
(1.24272 -0.480377 0)
(1.23642 -0.571741 0)
(1.2151 -0.676736 0)
(1.17527 -0.775499 0)
(1.11377 -0.844953 0)
(1.02929 -0.962406 0)
(0.842104 -1.15936 0)
(1.02371 -0.0025172 0)
(1.02529 -0.00832012 0)
(1.02806 -0.0133063 0)
(1.0317 -0.0189152 0)
(1.03635 -0.0242695 0)
(1.04162 -0.0299772 0)
(1.04769 -0.0357083 0)
(1.05448 -0.0416223 0)
(1.06221 -0.0477275 0)
(1.07106 -0.0542469 0)
(1.0813 -0.0615181 0)
(1.09317 -0.0700632 0)
(1.10681 -0.0805456 0)
(1.12223 -0.0937413 0)
(1.13924 -0.110476 0)
(1.15751 -0.131579 0)
(1.17673 -0.157909 0)
(1.19672 -0.190359 0)
(1.21688 -0.22979 0)
(1.23604 -0.277249 0)
(1.25332 -0.33408 0)
(1.26733 -0.401289 0)
(1.2762 -0.479982 0)
(1.28086 -0.574603 0)
(1.27817 -0.687949 0)
(1.24421 -0.811011 0)
(1.17885 -0.991217 0)
(1.10352 -1.31586 0)
(0.776808 -1.44738 0)
(0.999135 -0.00377538 0)
(0.999216 -0.00367538 0)
(0.999201 -0.00357275 0)
(0.999088 -0.00346589 0)
(0.998869 -0.00335326 0)
(0.998524 -0.00323321 0)
(0.99803 -0.00310441 0)
(0.997359 -0.00296617 0)
(0.996486 -0.00281876 0)
(0.995391 -0.00266385 0)
(0.994069 -0.0025048 0)
(0.992535 -0.00234692 0)
(0.99083 -0.00219734 0)
(0.989026 -0.00206454 0)
(0.987225 -0.00195745 0)
(0.985551 -0.00188416 0)
(0.98414 -0.00185051 0)
(0.983124 -0.00185874 0)
(0.982608 -0.00190647 0)
(0.998048 -0.0135377 0)
(0.997926 -0.0134451 0)
(0.997851 -0.013352 0)
(0.997822 -0.0132612 0)
(0.997849 -0.0131742 0)
(0.997956 -0.0130924 0)
(0.998177 -0.0130176 0)
(0.998559 -0.012951 0)
(0.999156 -0.0128931 0)
(1.00003 -0.0128428 0)
(1.00122 -0.0127967 0)
(1.00278 -0.0127484 0)
(1.00469 -0.0126882 0)
(1.00691 -0.0126029 0)
(1.00934 -0.0124773 0)
(1.01181 -0.0122959 0)
(1.01413 -0.0120455 0)
(1.01607 -0.0117186 0)
(1.01741 -0.0113153 0)
(0.994897 -0.0196448 0)
(0.994932 -0.0193591 0)
(0.994911 -0.0190636 0)
(0.994834 -0.0187579 0)
(0.994693 -0.0184422 0)
(0.994473 -0.0181155 0)
(0.994152 -0.0177764 0)
(0.993693 -0.0174233 0)
(0.993052 -0.0170543 0)
(0.992175 -0.0166684 0)
(0.991006 -0.0162659 0)
(0.989494 -0.0158494 0)
(0.987608 -0.0154247 0)
(0.985357 -0.0150016 0)
(0.982801 -0.0145927 0)
(0.980072 -0.0142129 0)
(0.977366 -0.0138763 0)
(0.974931 -0.0135932 0)
(0.973034 -0.0133678 0)
(0.992093 -0.0263596 0)
(0.991741 -0.0260952 0)
(0.991437 -0.0258211 0)
(0.991172 -0.0255398 0)
(0.990946 -0.025252 0)
(0.990769 -0.0249591 0)
(0.990664 -0.0246631 0)
(0.990668 -0.0243667 0)
(0.990834 -0.0240725 0)
(0.991228 -0.0237826 0)
(0.991929 -0.0234982 0)
(0.993012 -0.0232178 0)
(0.994536 -0.0229369 0)
(0.996523 -0.0226469 0)
(0.998928 -0.0223354 0)
(1.00162 -0.0219879 0)
(1.0044 -0.02159 0)
(1.00697 -0.0211317 0)
(1.00902 -0.0206103 0)
(0.986313 -0.0299304 0)
(0.98611 -0.0293475 0)
(0.985872 -0.0287455 0)
(0.985609 -0.0281266 0)
(0.985325 -0.0274947 0)
(0.985015 -0.0268532 0)
(0.984667 -0.0262053 0)
(0.984258 -0.0255545 0)
(0.983745 -0.0249041 0)
(0.983068 -0.0242575 0)
(0.982146 -0.0236184 0)
(0.980888 -0.0229914 0)
(0.979203 -0.0223824 0)
(0.97703 -0.0217988 0)
(0.974367 -0.0212493 0)
(0.971306 -0.0207422 0)
(0.968051 -0.0202827 0)
(0.964913 -0.01987 0)
(0.962267 -0.0194948 0)
(0.981679 -0.0350825 0)
(0.980918 -0.0346554 0)
(0.980243 -0.0342186 0)
(0.979649 -0.0337737 0)
(0.979141 -0.0333191 0)
(0.978733 -0.032854 0)
(0.978447 -0.0323782 0)
(0.978316 -0.0318908 0)
(0.978385 -0.0313908 0)
(0.978715 -0.0308762 0)
(0.979377 -0.0303435 0)
(0.980451 -0.0297874 0)
(0.982005 -0.0292004 0)
(0.984074 -0.0285725 0)
(0.986618 -0.0278926 0)
(0.989499 -0.0271508 0)
(0.992462 -0.0263415 0)
(0.995151 -0.0254676 0)
(0.997165 -0.0245426 0)
(0.974197 -0.0422257 0)
(0.973797 -0.0412732 0)
(0.973359 -0.0403001 0)
(0.972902 -0.0393075 0)
(0.972438 -0.0382983 0)
(0.971968 -0.037274 0)
(0.97148 -0.0362357 0)
(0.97095 -0.0351846 0)
(0.970329 -0.0341224 0)
(0.969548 -0.0330516 0)
(0.968512 -0.0319758 0)
(0.967106 -0.0309012 0)
(0.965216 -0.0298359 0)
(0.962758 -0.0287906 0)
(0.959724 -0.0277763 0)
(0.956224 -0.0268016 0)
(0.952523 -0.0258683 0)
(0.949019 -0.0249671 0)
(0.946185 -0.0240765 0)
(0.967753 -0.0476484 0)
(0.966603 -0.0470532 0)
(0.965551 -0.0464292 0)
(0.964584 -0.0457773 0)
(0.963703 -0.0450931 0)
(0.962915 -0.0443734 0)
(0.962239 -0.0436154 0)
(0.961707 -0.042816 0)
(0.961365 -0.041972 0)
(0.961279 -0.0410796 0)
(0.961534 -0.0401336 0)
(0.962226 -0.0391274 0)
(0.963444 -0.0380518 0)
(0.965232 -0.0368957 0)
(0.967547 -0.0356474 0)
(0.970207 -0.034299 0)
(0.972879 -0.032851 0)
(0.975111 -0.0313184 0)
(0.97642 -0.0297323 0)
(0.959299 -0.0595903 0)
(0.958474 -0.0581485 0)
(0.957588 -0.0566745 0)
(0.956663 -0.0551691 0)
(0.955715 -0.0536356 0)
(0.954744 -0.0520746 0)
(0.953743 -0.0504865 0)
(0.952687 -0.0488714 0)
(0.951532 -0.0472298 0)
(0.950208 -0.045563 0)
(0.948615 -0.0438742 0)
(0.946633 -0.0421697 0)
(0.944137 -0.0404597 0)
(0.941036 -0.0387593 0)
(0.937338 -0.0370864 0)
(0.933206 -0.0354579 0)
(0.929 -0.0338827 0)
(0.925243 -0.0323543 0)
(0.922508 -0.0308471 0)
(0.950613 -0.0663214 0)
(0.948905 -0.0654786 0)
(0.947299 -0.0645691 0)
(0.945774 -0.0635971 0)
(0.944319 -0.0625608 0)
(0.942938 -0.0614596 0)
(0.941643 -0.0602937 0)
(0.940461 -0.0590633 0)
(0.93944 -0.0577689 0)
(0.938648 -0.0564104 0)
(0.938186 -0.0549866 0)
(0.938173 -0.0534941 0)
(0.938731 -0.0519251 0)
(0.939937 -0.0502658 0)
(0.941764 -0.0484966 0)
(0.944005 -0.0465957 0)
(0.94625 -0.0445469 0)
(0.947931 -0.0423517 0)
(0.948468 -0.0400379 0)
(0.941645 -0.0825453 0)
(0.940015 -0.0805679 0)
(0.938335 -0.0785372 0)
(0.93663 -0.0764563 0)
(0.934915 -0.0743282 0)
(0.933194 -0.0721533 0)
(0.931463 -0.0699308 0)
(0.929704 -0.0676599 0)
(0.92788 -0.0653398 0)
(0.925928 -0.0629702 0)
(0.923752 -0.0605526 0)
(0.921222 -0.0580916 0)
(0.918185 -0.0555982 0)
(0.914514 -0.0530931 0)
(0.910175 -0.0506084 0)
(0.905326 -0.0481849 0)
(0.900388 -0.0458628 0)
(0.896024 -0.0436647 0)
(0.892978 -0.0415789 0)
(0.931166 -0.0926798 0)
(0.928595 -0.0914164 0)
(0.926148 -0.0900297 0)
(0.923798 -0.0885292 0)
(0.921529 -0.086922 0)
(0.919338 -0.085217 0)
(0.917233 -0.0834243 0)
(0.915234 -0.0815544 0)
(0.913379 -0.0796178 0)
(0.911734 -0.0776246 0)
(0.910398 -0.0755837 0)
(0.90951 -0.0735006 0)
(0.909231 -0.0713739 0)
(0.909711 -0.0691897 0)
(0.911001 -0.066915 0)
(0.912949 -0.0644958 0)
(0.915113 -0.0618654 0)
(0.916775 -0.0589685 0)
(0.91713 -0.0557955 0)
(0.92099 -0.113068 0)
(0.918195 -0.110441 0)
(0.915403 -0.107733 0)
(0.912643 -0.104952 0)
(0.909937 -0.102098 0)
(0.907298 -0.0991659 0)
(0.904726 -0.0961526 0)
(0.902213 -0.0930535 0)
(0.899733 -0.0898646 0)
(0.897237 -0.0865826 0)
(0.894637 -0.0832049 0)
(0.891794 -0.0797313 0)
(0.888518 -0.0761682 0)
(0.884587 -0.0725359 0)
(0.879826 -0.0688793 0)
(0.874243 -0.0652755 0)
(0.868192 -0.0618294 0)
(0.862475 -0.0586453 0)
(0.858192 -0.0557775 0)
(0.909071 -0.127969 0)
(0.905226 -0.125964 0)
(0.901552 -0.123719 0)
(0.898039 -0.121264 0)
(0.894661 -0.118621 0)
(0.891414 -0.115823 0)
(0.888305 -0.112898 0)
(0.885343 -0.109878 0)
(0.882558 -0.106793 0)
(0.879993 -0.103671 0)
(0.877731 -0.100541 0)
(0.875899 -0.0974288 0)
(0.874686 -0.0943577 0)
(0.874329 -0.0913354 0)
(0.875044 -0.0883412 0)
(0.876889 -0.0853055 0)
(0.879557 -0.0820976 0)
(0.88223 -0.0785471 0)
(0.883674 -0.0745162 0)
(0.896564 -0.152634 0)
(0.892023 -0.14898 0)
(0.887623 -0.145199 0)
(0.88336 -0.141276 0)
(0.87929 -0.137221 0)
(0.875435 -0.133022 0)
(0.8718 -0.128675 0)
(0.868394 -0.124183 0)
(0.865202 -0.119545 0)
(0.862197 -0.114766 0)
(0.859316 -0.109848 0)
(0.856445 -0.104793 0)
(0.853386 -0.0996001 0)
(0.849839 -0.0942783 0)
(0.84543 -0.0888591 0)
(0.839827 -0.0834276 0)
(0.833012 -0.0781524 0)
(0.82564 -0.0732789 0)
(0.819228 -0.0690578 0)
(0.882295 -0.173521 0)
(0.87643 -0.170158 0)
(0.870787 -0.166269 0)
(0.865472 -0.162003 0)
(0.86045 -0.157381 0)
(0.855723 -0.152487 0)
(0.851323 -0.147385 0)
(0.847252 -0.142137 0)
(0.843535 -0.136809 0)
(0.840194 -0.131465 0)
(0.837271 -0.126172 0)
(0.834845 -0.121 0)
(0.833057 -0.116019 0)
(0.832151 -0.111299 0)
(0.832482 -0.10689 0)
(0.834438 -0.102792 0)
(0.83819 -0.0988894 0)
(0.843233 -0.0949049 0)
(0.848009 -0.0904222 0)
(0.866193 -0.203508 0)
(0.858716 -0.198002 0)
(0.851705 -0.192277 0)
(0.845039 -0.18616 0)
(0.838819 -0.179726 0)
(0.833129 -0.172977 0)
(0.827965 -0.165934 0)
(0.823375 -0.158648 0)
(0.81936 -0.151156 0)
(0.815921 -0.143506 0)
(0.813024 -0.135737 0)
(0.810599 -0.127882 0)
(0.808496 -0.119961 0)
(0.806438 -0.111982 0)
(0.803961 -0.103946 0)
(0.800389 -0.0958824 0)
(0.794997 -0.0879288 0)
(0.787545 -0.0804 0)
(0.779179 -0.0738601 0)
(0.848078 -0.232475 0)
(0.838586 -0.226844 0)
(0.829442 -0.220038 0)
(0.820924 -0.2125 0)
(0.813129 -0.204286 0)
(0.806016 -0.195502 0)
(0.799717 -0.18631 0)
(0.794234 -0.176806 0)
(0.78961 -0.167134 0)
(0.785852 -0.157428 0)
(0.782969 -0.147832 0)
(0.780967 -0.138503 0)
(0.779884 -0.129603 0)
(0.779834 -0.121309 0)
(0.781089 -0.113801 0)
(0.784165 -0.107253 0)
(0.789806 -0.101737 0)
(0.798518 -0.0971482 0)
(0.809558 -0.092856 0)
(0.827359 -0.271043 0)
(0.81474 -0.262472 0)
(0.802917 -0.25323 0)
(0.792028 -0.243082 0)
(0.781978 -0.232009 0)
(0.773126 -0.220244 0)
(0.765427 -0.207812 0)
(0.759023 -0.194917 0)
(0.753938 -0.181702 0)
(0.750213 -0.168327 0)
(0.747828 -0.15495 0)
(0.746746 -0.141704 0)
(0.746851 -0.1287 0)
(0.747934 -0.116014 0)
(0.749595 -0.10368 0)
(0.75112 -0.0916709 0)
(0.751286 -0.0800526 0)
(0.748563 -0.0689295 0)
(0.74169 -0.0589493 0)
(0.804737 -0.311794 0)
(0.788099 -0.302415 0)
(0.772709 -0.291091 0)
(0.758159 -0.27789 0)
(0.745312 -0.26349 0)
(0.733914 -0.24778 0)
(0.724321 -0.231189 0)
(0.716558 -0.213909 0)
(0.710733 -0.19621 0)
(0.706846 -0.178386 0)
(0.704917 -0.160722 0)
(0.704884 -0.143531 0)
(0.706693 -0.127147 0)
(0.710288 -0.111929 0)
(0.715707 -0.0982612 0)
(0.723209 -0.0866169 0)
(0.733621 -0.0772825 0)
(0.748059 -0.0707839 0)
(0.768602 -0.0669403 0)
(0.778487 -0.363628 0)
(0.75734 -0.351192 0)
(0.736384 -0.335816 0)
(0.717863 -0.318946 0)
(0.700917 -0.29971 0)
(0.686416 -0.278982 0)
(0.674342 -0.256904 0)
(0.664935 -0.233839 0)
(0.658229 -0.210214 0)
(0.654345 -0.186353 0)
(0.653232 -0.162642 0)
(0.654888 -0.13943 0)
(0.659202 -0.117046 0)
(0.666002 -0.0957639 0)
(0.674945 -0.0758188 0)
(0.685444 -0.0571338 0)
(0.69601 -0.039998 0)
(0.705297 -0.0240749 0)
(0.707831 -0.00951771 0)
(0.75311 -0.422514 0)
(0.722634 -0.40662 0)
(0.696167 -0.388632 0)
(0.671087 -0.366186 0)
(0.649328 -0.341349 0)
(0.630716 -0.314169 0)
(0.615639 -0.285112 0)
(0.604138 -0.254918 0)
(0.596447 -0.223899 0)
(0.592445 -0.192637 0)
(0.592251 -0.161581 0)
(0.595761 -0.131226 0)
(0.602921 -0.102111 0)
(0.613602 -0.0748635 0)
(0.627683 -0.0500981 0)
(0.644969 -0.0290719 0)
(0.666724 -0.0120493 0)
(0.692075 -0.000850993 0)
(0.72768 0.0029079 0)
(0.720192 -0.492527 0)
(0.683858 -0.475091 0)
(0.647696 -0.450013 0)
(0.61582 -0.421321 0)
(0.58808 -0.389003 0)
(0.564892 -0.353379 0)
(0.546353 -0.316059 0)
(0.532817 -0.27707 0)
(0.523877 -0.237367 0)
(0.519877 -0.197349 0)
(0.520578 -0.157538 0)