/*--------------------------------*- C++ -*----------------------------------*\
  =========                 |
  \\      /  F ield         | OpenFOAM: The Open Source CFD Toolbox
   \\    /   O peration     | Website:  https://openfoam.org
    \\  /    A nd           | Version:  10
     \\/     M anipulation  |
\*---------------------------------------------------------------------------*/
FoamFile
{
    format      ascii;
    class       volVectorField;
    location    "0";
    object      U;
}
// * * * * * * * * * * * * * * * * * * * * * * * * * * * * * * * * * * * * * //

dimensions      [0 1 -1 0 0 0 0];

internalField   nonuniform List<vector> 
18483
(
(0.999996 -0.00025868 0)
(0.999995 -0.000918094 0)
(0.999995 -0.00144345 0)
(0.999994 -0.00198735 0)
(0.999993 -0.0024769 0)
(0.999992 -0.00292163 0)
(0.999992 -0.0033023 0)
(0.99999 -0.00360934 0)
(0.999989 -0.00383619 0)
(0.999986 -0.003982 0)
(0.999981 -0.00405084 0)
(0.999972 -0.00405918 0)
(0.99995 -0.00404394 0)
(0.9999 -0.00407217 0)
(0.999809 -0.00421031 0)
(0.999641 -0.00445977 0)
(0.999291 -0.00473141 0)
(0.998414 -0.00488113 0)
(0.996434 -0.00477943 0)
(0.99332 -0.00438083 0)
(0.990587 -0.00381914 0)
(0.990181 -0.00333718 0)
(0.992064 -0.00298122 0)
(0.994569 -0.00267016 0)
(0.996529 -0.00239702 0)
(0.99776 -0.00216522 0)
(0.998461 -0.00196955 0)
(0.998834 -0.00180492 0)
(0.99901 -0.00166581 0)
(1.00079 -0.000760151 0)
(1.0008 -0.00268725 0)
(1.00086 -0.00423935 0)
(1.00089 -0.00586887 0)
(1.0009 -0.00735426 0)
(1.00089 -0.00873031 0)
(1.00083 -0.00993314 0)
(1.00073 -0.0109305 0)
(1.00058 -0.0116955 0)
(1.0004 -0.012225 0)
(1.0002 -0.0125457 0)
(1.00001 -0.0127035 0)
(0.999891 -0.0127258 0)
(0.999893 -0.0125436 0)
(1.00001 -0.0120515 0)
(1.00015 -0.0112335 0)
(1.00019 -0.0102502 0)
(1.00019 -0.00936067 0)
(1.00067 -0.00873691 0)
(1.00235 -0.00846339 0)
(1.00475 -0.00841659 0)
(1.00579 -0.00822699 0)
(1.00447 -0.00784019 0)
(1.00215 -0.00750729 0)
(1.00028 -0.00726433 0)
(0.999111 -0.00706107 0)
(0.998423 -0.00687799 0)
(0.998007 -0.00670571 0)
(0.997744 -0.00654283 0)
(1.00225 -0.0011885 0)
(1.00232 -0.00419209 0)
(1.00248 -0.00664739 0)
(1.00261 -0.00926998 0)
(1.0027 -0.0117067 0)
(1.00271 -0.0140231 0)
(1.00259 -0.0161068 0)
(1.00234 -0.017902 0)
(1.00196 -0.0193524 0)
(1.00146 -0.0204299 0)
(1.00091 -0.0211181 0)
(1.00036 -0.0213877 0)
(0.9999 -0.0212376 0)
(0.999515 -0.0207498 0)
(0.999105 -0.0201509 0)
(0.998613 -0.0197323 0)
(0.998046 -0.0194911 0)
(0.997221 -0.0192256 0)
(0.995459 -0.0188578 0)
(0.991996 -0.0184035 0)
(0.987515 -0.0178812 0)
(0.984689 -0.0174235 0)
(0.985245 -0.0170157 0)
(0.987678 -0.0164021 0)
(0.989895 -0.0156145 0)
(0.991342 -0.0148238 0)
(0.992214 -0.0141046 0)
(0.992731 -0.0134806 0)
(0.99303 -0.0129524 0)
(1.00398 -0.00152338 0)
(1.00415 -0.00537063 0)
(1.00445 -0.00856821 0)
(1.00474 -0.0120501 0)
(1.00497 -0.0153628 0)
(1.00505 -0.0186015 0)
(1.00493 -0.021611 0)
(1.00456 -0.0243073 0)
(1.00394 -0.0265878 0)
(1.0031 -0.0283759 0)
(1.00208 -0.029622 0)
(1.00094 -0.0303237 0)
(0.999666 -0.0305661 0)
(0.998284 -0.0305116 0)
(0.996859 -0.0301466 0)
(0.995512 -0.0291844 0)
(0.994361 -0.0274825 0)
(0.993695 -0.025357 0)
(0.994401 -0.0232836 0)
(0.997475 -0.0215508 0)
(1.00191 -0.0202643 0)
(1.00403 -0.0192217 0)
(1.00165 -0.0182908 0)
(0.997094 -0.0176637 0)
(0.993386 -0.0172864 0)
(0.991129 -0.0169528 0)
(0.989813 -0.0165965 0)
(0.989014 -0.016214 0)
(0.988498 -0.0158187 0)
(1.00577 -0.00177609 0)
(1.00606 -0.00626145 0)
(1.00654 -0.0100493 0)
(1.00705 -0.0142527 0)
(1.00749 -0.0183468 0)
(1.00773 -0.0224561 0)
(1.00768 -0.0263899 0)
(1.00727 -0.030035 0)
(1.00647 -0.0332428 0)
(1.00529 -0.0359074 0)
(1.00378 -0.0379765 0)
(1.00199 -0.0394671 0)
(1.00003 -0.0404125 0)
(0.998028 -0.0407849 0)
(0.996104 -0.0405891 0)
(0.994221 -0.0401314 0)
(0.992279 -0.0398521 0)
(0.99024 -0.0397641 0)
(0.987637 -0.039452 0)
(0.983364 -0.0385898 0)
(0.977542 -0.0371383 0)
(0.973501 -0.0354807 0)
(0.974264 -0.0339524 0)
(0.97773 -0.0323774 0)
(0.98035 -0.0307252 0)
(0.981507 -0.0292079 0)
(0.981877 -0.0278918 0)
(0.981891 -0.0267713 0)
(0.981755 -0.0258299 0)
(1.00755 -0.00197199 0)
(1.00798 -0.00694882 0)
(1.00868 -0.011209 0)
(1.00947 -0.0160142 0)
(1.01021 -0.0207896 0)
(1.01071 -0.0256933 0)
(1.01085 -0.03051 0)
(1.01049 -0.0351072 0)
(1.00959 -0.0393003 0)
(1.00814 -0.0429479 0)
(1.0062 -0.0459424 0)
(1.00389 -0.0482047 0)
(1.0014 -0.049688 0)
(0.998801 -0.0504062 0)
(0.996095 -0.0504737 0)
(0.993291 -0.0500052 0)
(0.990513 -0.0488219 0)
(0.988022 -0.0467065 0)
(0.986607 -0.0439616 0)
(0.987812 -0.0412411 0)
(0.991737 -0.0391251 0)
(0.994375 -0.0375994 0)
(0.991665 -0.0362516 0)
(0.985623 -0.0351578 0)
(0.980717 -0.0344039 0)
(0.977873 -0.0337365 0)
(0.97617 -0.0330577 0)
(0.97506 -0.0323768 0)
(0.974294 -0.0317043 0)
(1.00932 -0.00213297 0)
(1.0099 -0.00750684 0)
(1.01086 -0.0121548 0)
(1.01198 -0.0174646 0)
(1.01308 -0.0228257 0)
(1.01394 -0.0284385 0)
(1.01436 -0.0340754 0)
(1.01417 -0.0395967 0)
(1.01329 -0.0447829 0)
(1.01168 -0.0494387 0)
(1.00942 -0.0533861 0)
(1.00661 -0.0564985 0)
(1.0034 -0.0587558 0)
(0.999879 -0.060236 0)
(0.99616 -0.0610054 0)
(0.992351 -0.0612033 0)
(0.98842 -0.0612024 0)
(0.984154 -0.0614071 0)
(0.979251 -0.0617125 0)
(0.9731 -0.0614557 0)
(0.965649 -0.0600256 0)
(0.959905 -0.0575757 0)
(0.9598 -0.0549665 0)
(0.96362 -0.0525097 0)
(0.96646 -0.0500231 0)
(0.967255 -0.0477288 0)
(0.967164 -0.0457584 0)
(0.966765 -0.0440771 0)
(0.966276 -0.042662 0)
(1.01106 -0.00227119 0)
(1.01181 -0.00797802 0)
(1.01304 -0.0129508 0)
(1.01451 -0.0186853 0)
(1.01603 -0.0245458 0)
(1.0173 -0.0307815 0)
(1.0181 -0.0371636 0)
(1.01821 -0.0435546 0)
(1.01747 -0.049706 0)
(1.01583 -0.0553823 0)
(1.0133 -0.0603645 0)
(1.00999 -0.0644929 0)
(1.00606 -0.0676776 0)
(1.00175 -0.0698763 0)
(0.997287 -0.0710558 0)
(0.992765 -0.0712558 0)
(0.988206 -0.0704665 0)
(0.983701 -0.0685198 0)
(0.979818 -0.0655203 0)
(0.977925 -0.062211 0)
(0.978965 -0.0595545 0)
(0.980384 -0.0579848 0)
(0.977422 -0.056791 0)
(0.970393 -0.0554118 0)
(0.964321 -0.0542261 0)
(0.960909 -0.053179 0)
(0.958832 -0.052085 0)
(0.957375 -0.0509983 0)
(0.956295 -0.0499376 0)
(1.01275 -0.00239023 0)
(1.01367 -0.0083767 0)
(1.01517 -0.0136208 0)
(1.01702 -0.0197103 0)
(1.01897 -0.0259913 0)
(1.02071 -0.0327667 0)
(1.02197 -0.0398152 0)
(1.02246 -0.0470143 0)
(1.02198 -0.0541055 0)
(1.0204 -0.0608339 0)
(1.01769 -0.0669378 0)
(1.01395 -0.0721809 0)
(1.00937 -0.0763623 0)
(1.0042 -0.0793742 0)
(0.998614 -0.0812199 0)
(0.992722 -0.0820105 0)
(0.986578 -0.0820779 0)
(0.98016 -0.0820444 0)
(0.973395 -0.0823736 0)
(0.965908 -0.0827049 0)
(0.957235 -0.0820215 0)
(0.949115 -0.0796602 0)
(0.945741 -0.0763508 0)
(0.947522 -0.0732185 0)
(0.949537 -0.0701299 0)
(0.949468 -0.0670635 0)
(0.948575 -0.0643655 0)
(0.947553 -0.0620168 0)
(0.946539 -0.0599948 0)
(1.01436 -0.00248951 0)
(1.01544 -0.00870309 0)
(1.01721 -0.0141683 0)
(1.01943 -0.020548 0)
(1.02184 -0.0271767 0)
(1.02408 -0.0344132 0)
(1.02585 -0.0420531 0)
(1.02681 -0.0500025 0)
(1.02669 -0.0580096 0)
(1.0253 -0.0658101 0)
(1.02257 -0.0730986 0)
(1.01855 -0.079576 0)
(1.0134 -0.0849873 0)
(1.00731 -0.0891812 0)
(1.00056 -0.0920957 0)
(0.993445 -0.0937057 0)
(0.986265 -0.0939913 0)
(0.979402 -0.0928731 0)
(0.973292 -0.0903012 0)
(0.968609 -0.0866597 0)
(0.966267 -0.0829624 0)
(0.965482 -0.080361 0)
(0.962109 -0.0788261 0)
(0.954281 -0.0771079 0)
(0.946317 -0.07523 0)
(0.941449 -0.0736248 0)
(0.938408 -0.0719602 0)
(0.936113 -0.0702679 0)
(0.934333 -0.0686328 0)
(1.01586 -0.00256802 0)
(1.01709 -0.00895547 0)
(1.01913 -0.014593 0)
(1.02171 -0.0212025 0)
(1.02457 -0.0281117 0)
(1.02734 -0.035736 0)
(1.02966 -0.0438947 0)
(1.03117 -0.0525307 0)
(1.03154 -0.0614094 0)
(1.03051 -0.0702684 0)
(1.02796 -0.0787798 0)
(1.02385 -0.086609 0)
(1.01831 -0.0934404 0)
(1.01153 -0.099003 0)
(1.00384 -0.103094 0)
(0.995575 -0.105626 0)
(0.987049 -0.106712 0)
(0.978452 -0.10694 0)
(0.969712 -0.107204 0)
(0.960423 -0.107737 0)
(0.949998 -0.107684 0)
(0.939184 -0.105837 0)
(0.931492 -0.10202 0)
(0.929506 -0.097792 0)
(0.929819 -0.0939266 0)
(0.928518 -0.0899631 0)
(0.926299 -0.0863236 0)
(0.92423 -0.0831673 0)
(0.922355 -0.080397 0)
(1.01725 -0.00262602 0)
(1.01863 -0.00913577 0)
(1.02091 -0.0148997 0)
(1.02384 -0.0216835 0)
(1.02714 -0.0288115 0)
(1.03044 -0.0367544 0)
(1.03336 -0.0453587 0)
(1.03548 -0.0546076 0)
(1.03644 -0.0642942 0)
(1.03592 -0.074176 0)
(1.0337 -0.0839261 0)
(1.02969 -0.0931839 0)
(1.02392 -0.101571 0)
(1.01656 -0.108733 0)
(1.00787 -0.114413 0)
(0.998216 -0.118528 0)
(0.988097 -0.121104 0)
(0.978114 -0.122078 0)
(0.968846 -0.121094 0)
(0.960699 -0.118002 0)
(0.954324 -0.113568 0)
(0.950135 -0.109428 0)
(0.945549 -0.106877 0)
(0.937007 -0.10482 0)
(0.926731 -0.102136 0)
(0.919403 -0.0996008 0)
(0.914797 -0.0971602 0)
(0.911216 -0.0945963 0)
(0.908366 -0.092136 0)
(1.01853 -0.00266509 0)
(1.02004 -0.00925009 0)
(1.02255 -0.0150989 0)
(1.02581 -0.0220072 0)
(1.02955 -0.0292984 0)
(1.03338 -0.0374951 0)
(1.0369 -0.0464727 0)
(1.03967 -0.0562567 0)
(1.0413 -0.0666792 0)
(1.04139 -0.0775332 0)
(1.03965 -0.0885084 0)
(1.03591 -0.0992344 0)
(1.03012 -0.1093 0)
(1.02238 -0.118303 0)
(1.01292 -0.125889 0)
(1.00221 -0.131799 0)
(0.990933 -0.135837 0)
(0.97962 -0.137995 0)
(0.968243 -0.138919 0)
(0.956205 -0.139687 0)
(0.943129 -0.14034 0)
(0.929287 -0.139444 0)
(0.916919 -0.1357 0)
(0.909749 -0.1303 0)
(0.907225 -0.125287 0)
(0.904514 -0.120404 0)
(0.900568 -0.115603 0)
(0.896977 -0.111433 0)
(0.893889 -0.107735 0)
(1.01969 -0.00268783 0)
(1.02132 -0.00930763 0)
(1.02405 -0.0152054 0)
(1.02763 -0.0221952 0)
(1.03178 -0.0296002 0)
(1.03613 -0.037992 0)
(1.04025 -0.0472742 0)
(1.0437 -0.0575154 0)
(1.04605 -0.0685935 0)
(1.04684 -0.0803455 0)
(1.04575 -0.0924889 0)
(1.0425 -0.104664 0)
(1.03698 -0.116446 0)
(1.02921 -0.127382 0)
(1.01936 -0.13701 0)
(1.00788 -0.144967 0)
(0.99533 -0.151059 0)
(0.98224 -0.155207 0)
(0.969005 -0.157202 0)
(0.956225 -0.156445 0)
(0.944848 -0.152782 0)
(0.935878 -0.147742 0)
(0.928485 -0.143838 0)
(0.91882 -0.141328 0)
(0.906097 -0.138089 0)
(0.895099 -0.134305 0)
(0.887952 -0.130796 0)
(0.882554 -0.127081 0)
(0.878146 -0.123421 0)
(1.02073 -0.0026973 0)
(1.02248 -0.00931903 0)
(1.02542 -0.0152361 0)
(1.02929 -0.0222713 0)
(1.03384 -0.0297479 0)
(1.03868 -0.0382823 0)
(1.04339 -0.0478051 0)
(1.04753 -0.0584252 0)
(1.05063 -0.0700684 0)
(1.05222 -0.0826194 0)
(1.05191 -0.0958352 0)
(1.04936 -0.109384 0)
(1.04436 -0.122847 0)
(1.03682 -0.13575 0)
(1.02681 -0.147589 0)
(1.01465 -0.157933 0)
(1.00097 -0.166444 0)
(0.986444 -0.172739 0)
(0.971428 -0.176617 0)
(0.955675 -0.178828 0)
(0.938787 -0.180568 0)
(0.921041 -0.181385 0)
(0.903634 -0.179083 0)
(0.889919 -0.173213 0)
(0.882467 -0.166612 0)
(0.877619 -0.160594 0)
(0.871549 -0.15434 0)
(0.865624 -0.148601 0)
(0.860724 -0.14354 0)
(1.02168 -0.00269658 0)
(1.02353 -0.00929497 0)
(1.02665 -0.0152079 0)
(1.0308 -0.0222592 0)
(1.03571 -0.029772 0)
(1.04102 -0.0384037 0)
(1.0463 -0.0481077 0)
(1.05112 -0.0590302 0)
(1.055 -0.0711444 0)
(1.05744 -0.0843855 0)
(1.05799 -0.0985607 0)
(1.05626 -0.113382 0)
(1.05194 -0.128457 0)
(1.04485 -0.143324 0)
(1.03495 -0.157452 0)
(1.02251 -0.170297 0)
(1.00815 -0.181363 0)
(0.992443 -0.19021 0)
(0.975605 -0.196504 0)
(0.957915 -0.199876 0)
(0.940665 -0.199587 0)
(0.925546 -0.195648 0)
(0.913029 -0.190649 0)
(0.900658 -0.187453 0)
(0.885231 -0.184374 0)
(0.869217 -0.179484 0)
(0.857524 -0.174411 0)
(0.849236 -0.169247 0)
(0.842368 -0.16382 0)
(1.02253 -0.00268842 0)
(1.02448 -0.00924507 0)
(1.02777 -0.0151361 0)
(1.03216 -0.0221802 0)
(1.03742 -0.0297008 0)
(1.04317 -0.0383913 0)
(1.04899 -0.0482232 0)
(1.05447 -0.0593775 0)
(1.05911 -0.0718733 0)
(1.06241 -0.0856972 0)
(1.06388 -0.100712 0)
(1.06306 -0.116682 0)
(1.05959 -0.133254 0)
(1.0532 -0.149987 0)
(1.04379 -0.166337 0)
(1.0315 -0.181689 0)
(1.01676 -0.195486 0)
(1.00008 -0.207237 0)
(0.981703 -0.216407 0)
(0.96175 -0.222795 0)
(0.940398 -0.227312 0)
(0.917866 -0.230924 0)
(0.894659 -0.232115 0)
(0.872982 -0.227984 0)
(0.857342 -0.220046 0)
(0.847886 -0.21234 0)
(0.838913 -0.204541 0)
(0.829307 -0.196467 0)
(0.821295 -0.189253 0)
(1.0233 -0.00267511 0)
(1.02533 -0.00917741 0)
(1.02878 -0.0150338 0)
(1.0334 -0.0220527 0)
(1.03898 -0.0295589 0)
(1.04513 -0.0382766 0)
(1.05147 -0.0481905 0)
(1.05757 -0.0595146 0)
(1.06295 -0.0723105 0)
(1.0671 -0.0866137 0)
(1.06951 -0.102342 0)
(1.06969 -0.119315 0)
(1.06723 -0.137227 0)
(1.06178 -0.15567 0)
(1.05313 -0.174124 0)
(1.04126 -0.191969 0)
(1.02646 -0.208599 0)
(1.00921 -0.223442 0)
(0.989732 -0.235881 0)
(0.968056 -0.24532 0)
(0.945077 -0.250959 0)
(0.922871 -0.251662 0)
(0.902937 -0.248066 0)
(0.885047 -0.244287 0)
(0.865878 -0.242052 0)
(0.843798 -0.237495 0)
(0.824277 -0.23061 0)
(0.81054 -0.223628 0)
(0.799557 -0.215899 0)
(1.024 -0.00265844 0)
(1.02611 -0.00909842 0)
(1.0297 -0.0149115 0)
(1.03453 -0.0218919 0)
(1.0404 -0.0293667 0)
(1.04692 -0.0380865 0)
(1.05373 -0.0480442 0)
(1.06042 -0.0594846 0)
(1.06652 -0.072507 0)
(1.0715 -0.0871914 0)
(1.07487 -0.103506 0)
(1.0761 -0.121333 0)
(1.07474 -0.140417 0)
(1.07035 -0.1604 0)
(1.06262 -0.180811 0)
(1.05143 -0.201044 0)
(1.03698 -0.220448 0)
(1.01967 -0.238418 0)
(0.999584 -0.254313 0)
(0.97657 -0.267455 0)
(0.950974 -0.277696 0)
(0.92332 -0.286105 0)
(0.893788 -0.292939 0)
(0.863444 -0.294667 0)
(0.836312 -0.28845 0)
(0.817194 -0.278935 0)
(0.803034 -0.269807 0)
(0.788046 -0.259283 0)
(0.774318 -0.248861 0)
(1.02463 -0.00263976 0)
(1.02681 -0.00901312 0)
(1.03052 -0.0147776 0)
(1.03554 -0.0217102 0)
(1.04168 -0.029141 0)
(1.04854 -0.0378433 0)
(1.05579 -0.047814 0)
(1.06304 -0.0593257 0)
(1.06981 -0.0725098 0)
(1.0756 -0.0874871 0)
(1.0799 -0.104274 0)
(1.08219 -0.122812 0)
(1.08193 -0.142906 0)
(1.07867 -0.164252 0)
(1.07203 -0.186426 0)
(1.0618 -0.208849 0)
(1.04809 -0.230882 0)
(1.03115 -0.251945 0)
(1.01094 -0.271433 0)
(0.987168 -0.288624 0)
(0.960284 -0.302652 0)
(0.93183 -0.311958 0)
(0.903653 -0.314695 0)
(0.877064 -0.312707 0)
(0.851534 -0.311899 0)
(0.822904 -0.310837 0)
(0.792237 -0.304094 0)
(0.767769 -0.295018 0)
(0.749538 -0.285034 0)
(1.0252 -0.00262008 0)
(1.02744 -0.00892531 0)
(1.03127 -0.0146386 0)
(1.03645 -0.0215174 0)
(1.04284 -0.0288954 0)
(1.05001 -0.0375652 0)
(1.05767 -0.0475244 0)
(1.06542 -0.0590709 0)
(1.07282 -0.0723623 0)
(1.07938 -0.0875566 0)
(1.08458 -0.104716 0)
(1.08788 -0.123836 0)
(1.08874 -0.144784 0)
(1.08668 -0.167302 0)
(1.08125 -0.191017 0)
(1.07219 -0.215401 0)
(1.05949 -0.239867 0)
(1.0433 -0.263883 0)
(1.02349 -0.286861 0)
(0.99967 -0.308074 0)
(0.971943 -0.326775 0)
(0.940626 -0.342904 0)
(0.905609 -0.357727 0)
(0.86725 -0.37015 0)
(0.82741 -0.373145 0)
(0.792272 -0.365034 0)
(0.766732 -0.354781 0)
(0.744183 -0.343529 0)
(0.720928 -0.329358 0)
(1.0257 -0.00260016 0)
(1.028 -0.00883782 0)
(1.03194 -0.0144994 0)
(1.03727 -0.0213209 0)
(1.04388 -0.0286406 0)
(1.05132 -0.0372671 0)
(1.05936 -0.0471958 0)
(1.06758 -0.0587486 0)
(1.07557 -0.0721035 0)
(1.08284 -0.0874516 0)
(1.08888 -0.104896 0)
(1.09316 -0.124483 0)
(1.09515 -0.146134 0)
(1.09431 -0.16964 0)
(1.09016 -0.194682 0)
(1.08236 -0.220795 0)
(1.07086 -0.247453 0)
(1.05578 -0.274177 0)
(1.03684 -0.300433 0)
(1.01354 -0.325639 0)
(0.98584 -0.349174 0)
(0.954197 -0.369805 0)
(0.919783 -0.384813 0)
(0.884243 -0.391503 0)
(0.84899 -0.39384 0)
(0.812493 -0.399112 0)
(0.769877 -0.399707 0)
(0.727133 -0.390328 0)
(0.694589 -0.378576 0)
(1.02615 -0.00258056 0)
(1.0285 -0.0087527 0)
(1.03253 -0.0143634 0)
(1.03799 -0.0211262 0)
(1.0448 -0.0283849 0)
(1.05249 -0.0369607 0)
(1.06087 -0.0468451 0)
(1.06952 -0.0583821 0)
(1.07804 -0.0717656 0)
(1.08598 -0.0872152 0)
(1.09282 -0.10487 0)
(1.09805 -0.12482 0)
(1.10113 -0.147039 0)
(1.10149 -0.171368 0)
(1.09863 -0.197541 0)
(1.09215 -0.22515 0)
(1.08199 -0.253724 0)
(1.06825 -0.282853 0)
(1.05057 -0.312087 0)
(1.02835 -0.340957 0)
(1.00155 -0.368988 0)
(0.969933 -0.395407 0)
(0.932592 -0.420393 0)
(0.889294 -0.44596 0)
(0.840169 -0.468462 0)
(0.786473 -0.474547 0)
(0.738481 -0.465506 0)
(0.701756 -0.455648 0)
(0.665584 -0.440554 0)
(1.02655 -0.00256166 0)
(1.02895 -0.00867139 0)
(1.03305 -0.014233 0)
(1.03863 -0.0209376 0)
(1.04562 -0.0281345 0)
(1.05354 -0.0366553 0)
(1.06222 -0.0464859 0)
(1.07126 -0.0579909 0)
(1.08027 -0.0713754 0)
(1.08882 -0.0868841 0)
(1.09641 -0.104687 0)
(1.10253 -0.124914 0)
(1.10665 -0.147587 0)
(1.10816 -0.172593 0)
(1.10655 -0.199715 0)
(1.10141 -0.228595 0)
(1.09268 -0.258811 0)
(1.08043 -0.290023 0)
(1.06428 -0.321872 0)
(1.0436 -0.35401 0)
(1.01826 -0.38627 0)
(0.987991 -0.418275 0)
(0.952225 -0.448388 0)
(0.911836 -0.472323 0)
(0.867607 -0.486104 0)
(0.820632 -0.498078 0)
(0.767827 -0.515843 0)
(0.703006 -0.51878 0)
(0.641061 -0.505638 0)
(1.0269 -0.00254373 0)
(1.02934 -0.00859483 0)
(1.03352 -0.01411 0)
(1.0392 -0.0207578 0)
(1.04635 -0.027894 0)
(1.05446 -0.0363576 0)
(1.06342 -0.0461287 0)
(1.07281 -0.0575901 0)
(1.08227 -0.0709548 0)
(1.09137 -0.0864891 0)
(1.09965 -0.104391 0)
(1.10659 -0.124823 0)
(1.11167 -0.147852 0)
(1.11429 -0.173409 0)
(1.1139 -0.201314 0)
(1.1101 -0.231258 0)
(1.10281 -0.262863 0)
(1.0921 -0.295834 0)
(1.07765 -0.329906 0)
(1.05882 -0.364868 0)
(1.03549 -0.400711 0)
(1.00747 -0.43739 0)
(0.973337 -0.474442 0)
(0.930534 -0.512746 0)
(0.878675 -0.55665 0)
(0.816513 -0.598773 0)
(0.740898 -0.612282 0)
(0.668617 -0.604171 0)
(0.611079 -0.59485 0)
(1.02721 -0.00252695 0)
(1.02969 -0.00852362 0)
(1.03393 -0.0139952 0)
(1.03971 -0.0205888 0)
(1.04699 -0.0276666 0)
(1.05528 -0.0360726 0)
(1.06448 -0.0457816 0)
(1.07418 -0.057192 0)
(1.08404 -0.070522 0)
(1.09365 -0.0860569 0)
(1.10255 -0.104018 0)
(1.11025 -0.124598 0)
(1.11623 -0.147901 0)
(1.11989 -0.173898 0)
(1.12066 -0.202444 0)
(1.11814 -0.23327 0)
(1.11227 -0.266039 0)
(1.1031 -0.300476 0)
(1.09038 -0.336375 0)
(1.07364 -0.373686 0)
(1.05267 -0.412543 0)
(1.02724 -0.453279 0)
(0.996563 -0.496494 0)
(0.95918 -0.540722 0)
(0.913661 -0.578528 0)
(0.85918 -0.603708 0)
(0.797717 -0.637863 0)
(0.717345 -0.685225 0)
(0.607304 -0.688068 0)
(1.02749 -0.00251141 0)
(1.03 -0.00845805 0)
(1.03429 -0.0138893 0)
(1.04015 -0.0204319 0)
(1.04756 -0.0274541 0)
(1.05601 -0.0358038 0)
(1.06542 -0.0454503 0)
(1.07539 -0.0568055 0)
(1.08561 -0.0700909 0)
(1.09568 -0.0856081 0)
(1.10514 -0.103599 0)
(1.11353 -0.124279 0)
(1.12033 -0.147789 0)
(1.12496 -0.174133 0)
(1.12682 -0.203198 0)
(1.12552 -0.234749 0)
(1.12099 -0.26848 0)
(1.11334 -0.304125 0)
(1.1023 -0.34149 0)
(1.08766 -0.380667 0)
(1.06935 -0.421996 0)
(1.04691 -0.465823 0)
(1.02027 -0.513169 0)
(0.987551 -0.565051 0)
(0.94118 -0.622862 0)
(0.881621 -0.69801 0)
(0.809535 -0.784667 0)
(0.694274 -0.822528 0)
(0.552479 -0.81415 0)
(1.02773 -0.00249717 0)
(1.03027 -0.00839825 0)
(1.03461 -0.0137923 0)
(1.04054 -0.0202876 0)
(1.04805 -0.0272579 0)
(1.05664 -0.0355535 0)
(1.06625 -0.0451389 0)
(1.07647 -0.0564374 0)
(1.08701 -0.0696723 0)
(1.09747 -0.0851594 0)
(1.10744 -0.103156 0)
(1.11646 -0.123902 0)
(1.12401 -0.147563 0)
(1.12951 -0.174179 0)
(1.13238 -0.203663 0)
(1.13221 -0.235806 0)
(1.12895 -0.270324 0)
(1.12273 -0.306957 0)
(1.11331 -0.345495 0)
(1.10064 -0.386084 0)
(1.08507 -0.429312 0)
(1.06598 -0.475596 0)
(1.04304 -0.525993 0)
(1.01665 -0.583984 0)
(0.984023 -0.650317 0)
(0.938276 -0.708893 0)
(0.87261 -0.748205 0)
(0.795104 -0.841293 0)
(0.646924 -0.966429 0)
(1.02794 -0.00248423 0)
(1.0305 -0.00834413 0)
(1.03488 -0.0137043 0)
(1.04089 -0.0201561 0)
(1.04849 -0.0270785 0)
(1.0572 -0.035323 0)
(1.06698 -0.0448499 0)
(1.07741 -0.056092 0)
(1.08823 -0.0692736 0)
(1.09905 -0.0847221 0)
(1.10948 -0.102708 0)
(1.11905 -0.123492 0)
(1.12728 -0.147261 0)
(1.13358 -0.174086 0)
(1.13737 -0.203905 0)
(1.13823 -0.236529 0)
(1.13613 -0.271684 0)
(1.13124 -0.309116 0)
(1.12334 -0.34859 0)
(1.11249 -0.39022 0)
(1.09945 -0.434771 0)
(1.08387 -0.482923 0)
(1.06498 -0.535369 0)
(1.04481 -0.595625 0)
(1.02191 -0.667393 0)
(0.978443 -0.747539 0)
(0.917041 -0.868555 0)
(0.848607 -1.06513 0)
(0.60564 -1.11349 0)
(0.999063 -0.00154593 0)
(0.99903 -0.00143117 0)
(0.998906 -0.00131049 0)
(0.998677 -0.00118356 0)
(0.998319 -0.00105039 0)
(0.997808 -0.000911338 0)
(0.997118 -0.000767633 0)
(0.996228 -0.000621604 0)
(0.995129 -0.000476757 0)
(0.993829 -0.000337737 0)
(0.992361 -0.000210034 0)
(0.990786 -9.94306e-05 0)
(0.989193 -1.12067e-05 0)
(0.987695 5.07769e-05 0)
(0.986415 8.49507e-05 0)
(0.985473 9.2653e-05 0)
(0.984968 7.83177e-05 0)
(0.984961 4.91412e-05 0)
(0.985458 1.42476e-05 0)
(0.997575 -0.00639239 0)
(0.997468 -0.00625026 0)
(0.997424 -0.0061114 0)
(0.997464 -0.00597668 0)
(0.997624 -0.00584498 0)
(0.997946 -0.00571484 0)
(0.99848 -0.00558414 0)
(0.999275 -0.0054497 0)
(1.00037 -0.00530711 0)
(1.00179 -0.00515073 0)
(1.00351 -0.0049739 0)
(1.00547 -0.00476963 0)
(1.00757 -0.00453154 0)
(1.00965 -0.00425516 0)
(1.01153 -0.00393913 0)
(1.01302 -0.00358614 0)
(1.01396 -0.00320319 0)
(1.01422 -0.00280097 0)
(1.01377 -0.0023924 0)
(0.993187 -0.0125036 0)
(0.993249 -0.0120854 0)
(0.993216 -0.0116613 0)
(0.99307 -0.011231 0)
(0.992784 -0.0107949 0)
(0.992325 -0.0103522 0)
(0.991653 -0.00990228 0)
(0.990727 -0.00944469 0)
(0.989517 -0.00897966 0)
(0.988008 -0.00850822 0)
(0.986217 -0.00803236 0)
(0.984201 -0.00755487 0)
(0.982064 -0.00707901 0)
(0.979957 -0.00660779 0)
(0.978061 -0.00614328 0)
(0.976568 -0.00568604 0)
(0.975647 -0.00523495 0)
(0.97541 -0.00478756 0)
(0.975889 -0.004341 0)
(0.988144 -0.0154298 0)
(0.987875 -0.0150405 0)
(0.987667 -0.0146359 0)
(0.98753 -0.0142206 0)
(0.987485 -0.0137971 0)
(0.98757 -0.0133687 0)
(0.987828 -0.0129387 0)
(0.988311 -0.0125107 0)
(0.989065 -0.0120875 0)
(0.990122 -0.0116709 0)
(0.991483 -0.0112615 0)
(0.993109 -0.0108585 0)
(0.994907 -0.0104597 0)
(0.996735 -0.0100625 0)
(0.998412 -0.00966413 0)
(0.999747 -0.0092629 0)
(1.00057 -0.00885816 0)
(1.00077 -0.0084503 0)
(1.0003 -0.00804007 0)
(0.981562 -0.0250323 0)
(0.981336 -0.0242935 0)
(0.981069 -0.0235518 0)
(0.980758 -0.0228089 0)
(0.980389 -0.022068 0)
(0.979938 -0.0213311 0)
(0.979372 -0.0206002 0)
(0.978649 -0.0198769 0)
(0.977728 -0.0191624 0)
(0.976575 -0.0184577 0)
(0.975179 -0.0177637 0)
(0.973564 -0.0170812 0)
(0.971805 -0.0164106 0)
(0.970023 -0.0157513 0)
(0.968385 -0.0151017 0)
(0.967073 -0.014458 0)
(0.966252 -0.0138142 0)
(0.966032 -0.0131629 0)
(0.966439 -0.0124964 0)
(0.973745 -0.031062 0)
(0.973319 -0.0304307 0)
(0.972986 -0.0297819 0)
(0.972757 -0.0291199 0)
(0.972654 -0.0284453 0)
(0.972706 -0.0277589 0)
(0.97295 -0.0270619 0)
(0.973421 -0.0263549 0)
(0.974155 -0.0256376 0)
(0.975171 -0.0249084 0)
(0.976462 -0.0241641 0)
(0.977985 -0.0233991 0)
(0.979643 -0.0226067 0)
(0.981291 -0.021779 0)
(0.982744 -0.0209094 0)
(0.983804 -0.0199944 0)
(0.984296 -0.0190352 0)
(0.984113 -0.0180388 0)
(0.983241 -0.0170166 0)
(0.965792 -0.0414587 0)
(0.965315 -0.0403377 0)
(0.964827 -0.039203 0)
(0.964329 -0.0380531 0)
(0.963811 -0.0368875 0)
(0.963252 -0.0357041 0)
(0.962618 -0.0345006 0)
(0.961863 -0.0332751 0)
(0.960933 -0.0320269 0)
(0.959775 -0.0307575 0)
(0.958349 -0.0294713 0)
(0.95665 -0.0281767 0)
(0.954722 -0.0268861 0)
(0.952674 -0.0256146 0)
(0.950677 -0.0243773 0)
(0.948945 -0.023186 0)
(0.947693 -0.0220448 0)
(0.947088 -0.020948 0)
(0.947199 -0.0198799 0)
(0.955452 -0.0489298 0)
(0.95473 -0.0479403 0)
(0.954069 -0.0469202 0)
(0.953476 -0.0458739 0)
(0.952964 -0.0448003 0)
(0.952556 -0.0436994 0)
(0.952284 -0.0425718 0)
(0.95219 -0.041418 0)
(0.952324 -0.0402382 0)
(0.952735 -0.0390308 0)
(0.953463 -0.0377914 0)
(0.954516 -0.0365111 0)
(0.955852 -0.0351755 0)
(0.957364 -0.033766 0)
(0.958867 -0.0322618 0)
(0.960124 -0.0306459 0)
(0.960878 -0.0289111 0)
(0.960914 -0.0270664 0)
(0.960126 -0.0251386 0)
(0.945607 -0.0582487 0)
(0.944718 -0.0566012 0)
(0.943821 -0.0549178 0)
(0.94292 -0.0531986 0)
(0.94201 -0.0514443 0)
(0.941076 -0.0496532 0)
(0.940092 -0.0478227 0)
(0.939017 -0.0459501 0)
(0.937793 -0.044033 0)
(0.936349 -0.0420708 0)
(0.93461 -0.0400669 0)
(0.932518 -0.0380311 0)
(0.930057 -0.0359821 0)
(0.927285 -0.0339479 0)
(0.924361 -0.0319637 0)
(0.921548 -0.0300657 0)
(0.919184 -0.0282814 0)
(0.917607 -0.0266191 0)
(0.917059 -0.0250609 0)
(0.932888 -0.0670818 0)
(0.931601 -0.0655602 0)
(0.930368 -0.0639893 0)
(0.929186 -0.0623773 0)
(0.928057 -0.0607262 0)
(0.926994 -0.0590383 0)
(0.926019 -0.0573174 0)
(0.925167 -0.0555677 0)
(0.924492 -0.053794 0)
(0.924065 -0.0520006 0)
(0.923975 -0.0501893 0)
(0.924306 -0.0483566 0)
(0.925118 -0.0464892 0)
(0.926403 -0.0445611 0)
(0.928045 -0.0425329 0)
(0.9298 -0.0403567 0)
(0.931304 -0.0379885 0)
(0.932143 -0.035405 0)
(0.93197 -0.0326206 0)
(0.920707 -0.0779771 0)
(0.919182 -0.0756741 0)
(0.917682 -0.0733082 0)
(0.91621 -0.0708834 0)
(0.914765 -0.0684024 0)
(0.913339 -0.0658651 0)
(0.911918 -0.0632706 0)
(0.910474 -0.0606171 0)
(0.908961 -0.0579013 0)
(0.907307 -0.0551198 0)
(0.905416 -0.0522699 0)
(0.903172 -0.0493538 0)
(0.900458 -0.0463836 0)
(0.897205 -0.0433874 0)
(0.893449 -0.040414 0)
(0.889394 -0.0375315 0)
(0.885446 -0.0348152 0)
(0.882177 -0.0323259 0)
(0.880182 -0.0300817 0)
(0.906045 -0.0898173 0)
(0.903971 -0.087542 0)
(0.901981 -0.0851885 0)
(0.900068 -0.0827712 0)
(0.898229 -0.0802984 0)
(0.896465 -0.0777782 0)
(0.894785 -0.0752199 0)
(0.893207 -0.0726334 0)
(0.891763 -0.0700296 0)
(0.890515 -0.067421 0)
(0.889555 -0.0648206 0)
(0.889011 -0.0622398 0)
(0.889041 -0.0596827 0)
(0.889789 -0.0571377 0)
(0.891324 -0.0545666 0)
(0.893547 -0.0518981 0)
(0.89611 -0.0490311 0)
(0.898411 -0.0458597 0)
(0.899709 -0.0423162 0)
(0.891221 -0.10445 0)
(0.888805 -0.101302 0)
(0.886476 -0.0980498 0)
(0.884241 -0.094705 0)
(0.882104 -0.0912711 0)
(0.880061 -0.08775 0)
(0.878108 -0.0841432 0)
(0.876231 -0.0804517 0)
(0.874405 -0.0766752 0)
(0.872584 -0.0728115 0)
(0.870691 -0.0688561 0)
(0.8686 -0.0648023 0)
(0.866137 -0.060646 0)
(0.863086 -0.056394 0)
(0.859252 -0.0520789 0)
(0.854565 -0.0477747 0)
(0.849233 -0.0436042 0)
(0.843871 -0.0397216 0)
(0.839483 -0.0362628 0)
(0.874591 -0.119992 0)
(0.871435 -0.116595 0)
(0.868439 -0.113055 0)
(0.865596 -0.109397 0)
(0.862902 -0.105641 0)
(0.860355 -0.101807 0)
(0.857956 -0.0979181 0)
(0.855711 -0.0939947 0)
(0.853629 -0.0900595 0)
(0.851737 -0.0861358 0)
(0.850087 -0.0822491 0)
(0.848775 -0.0784276 0)
(0.847962 -0.0747014 0)
(0.847883 -0.0710963 0)
(0.848814 -0.0676194 0)
(0.850977 -0.0642342 0)
(0.854351 -0.0608321 0)
(0.858458 -0.0572235 0)
(0.862251 -0.0531783 0)
(0.85652 -0.13892 0)
(0.852759 -0.134455 0)
(0.849197 -0.129806 0)
(0.845846 -0.125001 0)
(0.842722 -0.120049 0)
(0.839831 -0.11496 0)
(0.837173 -0.109745 0)
(0.834745 -0.104413 0)
(0.832534 -0.0989738 0)
(0.830519 -0.0934376 0)
(0.828657 -0.0878104 0)
(0.826872 -0.0820943 0)
(0.825024 -0.0762857 0)
(0.822882 -0.0703769 0)
(0.820103 -0.0643661 0)
(0.816276 -0.0582831 0)
(0.81109 -0.0522315 0)
(0.804658 -0.0464205 0)
(0.797914 -0.0411534 0)
(0.836845 -0.158683 0)
(0.832016 -0.153512 0)
(0.827489 -0.148036 0)
(0.823285 -0.142316 0)
(0.819403 -0.136387 0)
(0.815851 -0.130298 0)
(0.812635 -0.124095 0)
(0.809756 -0.11783 0)
(0.807218 -0.111553 0)
(0.805027 -0.105322 0)
(0.803197 -0.0991914 0)
(0.801767 -0.0932224 0)
(0.800819 -0.0874775 0)
(0.80052 -0.0820241 0)
(0.801168 -0.0769289 0)
(0.803198 -0.0722417 0)
(0.807079 -0.0679446 0)
(0.812963 -0.0638845 0)
(0.820149 -0.0597028 0)
(0.814576 -0.182518 0)
(0.808556 -0.175841 0)
(0.802958 -0.168813 0)
(0.79779 -0.161447 0)
(0.793104 -0.153799 0)
(0.788933 -0.145901 0)
(0.785293 -0.137798 0)
(0.782202 -0.129537 0)
(0.77966 -0.121162 0)
(0.777658 -0.112718 0)
(0.77617 -0.104243 0)
(0.775147 -0.0957682 0)
(0.774497 -0.0873141 0)
(0.774054 -0.0788899 0)
(0.773516 -0.070492 0)
(0.772366 -0.0621094 0)
(0.76985 -0.0537802 0)
(0.765189 -0.0456517 0)
(0.758201 -0.0380936 0)
(0.790472 -0.208129 0)
(0.782685 -0.200203 0)
(0.775448 -0.191564 0)
(0.768861 -0.182396 0)
(0.762972 -0.172749 0)
(0.75781 -0.162722 0)
(0.753421 -0.152415 0)
(0.749818 -0.14193 0)
(0.747014 -0.131385 0)
(0.745004 -0.120898 0)
(0.743779 -0.110602 0)
(0.743332 -0.100634 0)
(0.743667 -0.0911409 0)
(0.744839 -0.0822772 0)
(0.747004 -0.0741997 0)
(0.750508 -0.0670783 0)
(0.756006 -0.0610246 0)
(0.764306 -0.0560813 0)
(0.775965 -0.0520181 0)
(0.763149 -0.239116 0)
(0.753055 -0.228947 0)
(0.743735 -0.218007 0)
(0.735284 -0.206277 0)
(0.72778 -0.193865 0)
(0.721356 -0.180893 0)
(0.716056 -0.167472 0)
(0.711951 -0.153752 0)
(0.709065 -0.139871 0)
(0.707418 -0.125979 0)
(0.706995 -0.112212 0)
(0.707761 -0.0986951 0)
(0.709638 -0.0855293 0)
(0.712487 -0.0727833 0)
(0.716051 -0.0605005 0)
(0.719879 -0.0486427 0)
(0.723071 -0.0372419 0)
(0.724389 -0.026339 0)
(0.721804 -0.0161206 0)
(0.73402 -0.273638 0)
(0.720644 -0.261636 0)
(0.70835 -0.248133 0)
(0.697202 -0.233367 0)
(0.687478 -0.217555 0)
(0.679231 -0.200832 0)
(0.672624 -0.183443 0)
(0.667706 -0.165589 0)
(0.664548 -0.147514 0)
(0.663155 -0.129461 0)
(0.663519 -0.11169 0)
(0.665594 -0.0944763 0)
(0.669315 -0.0781125 0)
(0.674612 -0.062928 0)
(0.681471 -0.0492478 0)
(0.68998 -0.0375361 0)
(0.70079 -0.0280641 0)
(0.714534 -0.0211863 0)
(0.733312 -0.0172874 0)
(0.701391 -0.315595 0)
(0.684038 -0.300635 0)
(0.667746 -0.283655 0)
(0.653208 -0.265046 0)
(0.640453 -0.244808 0)
(0.629839 -0.223336 0)
(0.621451 -0.20086 0)
(0.615467 -0.177714 0)
(0.611928 -0.154208 0)
(0.610899 -0.130673 0)
(0.612379 -0.107431 0)
(0.616345 -0.0848066 0)
(0.622726 -0.0631068 0)
(0.631402 -0.0425761 0)
(0.64212 -0.0234876 0)
(0.654594 -0.00573474 0)
(0.66745 0.0104901 0)
(0.680016 0.0252628 0)
(0.688611 0.0390016 0)
(0.668278 -0.363597 0)
(0.644541 -0.345651 0)
(0.623147 -0.325123 0)
(0.603787 -0.301682 0)
(0.587183 -0.276143 0)
(0.573419 -0.248769 0)
(0.562815 -0.220047 0)
(0.5554 -0.190398 0)
(0.551327 -0.160246 0)
(0.5506 -0.130002 0)
(0.553252 -0.100089 0)
(0.559267 -0.0709471 0)
(0.568595 -0.0430454 0)
(0.581125 -0.016986 0)
(0.59681 0.00676896 0)
(0.615106 0.0269921 0)
(0.637435 0.0432714 0)
(0.662712 0.0544036 0)
(0.694586 0.0582237 0)
(0.630619 -0.420937 0)
(0.600508 -0.399836 0)
(0.572204 -0.373741 0)
(0.547286 -0.344422 0)
(0.52593 -0.312094 0)
(0.508667 -0.277483 0)
(0.495419 -0.241255 0)
(0.486456 -0.203923 0)