/*--------------------------------*- C++ -*----------------------------------*\
  =========                 |
  \\      /  F ield         | OpenFOAM: The Open Source CFD Toolbox
   \\    /   O peration     | Website:  https://openfoam.org
    \\  /    A nd           | Version:  10
     \\/     M anipulation  |
\*---------------------------------------------------------------------------*/
FoamFile
{
    format      ascii;
    class       volVectorField;
    location    "0";
    object      U;
}
// * * * * * * * * * * * * * * * * * * * * * * * * * * * * * * * * * * * * * //

dimensions      [0 1 -1 0 0 0 0];

internalField   nonuniform List<vector> 
18483
(
(1 -0.000171846 0)
(1 -0.000626754 0)
(1 -0.00102908 0)
(1 -0.00148991 0)
(1 -0.00196578 0)
(1.00001 -0.0024606 0)
(1.00001 -0.00295231 0)
(1.00001 -0.003422 0)
(1.00001 -0.00385091 0)
(1.00002 -0.00422444 0)
(1.00003 -0.00453386 0)
(1.00006 -0.0047747 0)
(1.0001 -0.00495054 0)
(1.00016 -0.00508993 0)
(1.00025 -0.00523182 0)
(1.00035 -0.00540669 0)
(1.00043 -0.0055748 0)
(1.00025 -0.00565688 0)
(0.999176 -0.00563466 0)
(0.996365 -0.0055696 0)
(0.992064 -0.00564765 0)
(0.988589 -0.00598193 0)
(0.98813 -0.00637895 0)
(0.99019 -0.00659799 0)
(0.992888 -0.00661757 0)
(0.995118 -0.00652873 0)
(0.996679 -0.00640235 0)
(0.997708 -0.00627599 0)
(0.998373 -0.00616466 0)
(1.00053 -0.000499927 0)
(1.00058 -0.00180435 0)
(1.00068 -0.00294649 0)
(1.0008 -0.00425187 0)
(1.00092 -0.00558598 0)
(1.00103 -0.00696671 0)
(1.00112 -0.00833264 0)
(1.00116 -0.00963233 0)
(1.00115 -0.0108103 0)
(1.00108 -0.0118216 0)
(1.00095 -0.012637 0)
(1.00076 -0.0132647 0)
(1.00054 -0.0137151 0)
(1.0003 -0.0139371 0)
(1.00004 -0.0138513 0)
(0.999701 -0.0133909 0)
(0.999276 -0.0126304 0)
(0.999043 -0.0117776 0)
(1.00002 -0.0110044 0)
(1.00373 -0.0104104 0)
(1.01006 -0.00981295 0)
(1.01524 -0.00897975 0)
(1.01546 -0.00814264 0)
(1.01161 -0.00764222 0)
(1.00707 -0.00746147 0)
(1.00361 -0.0074106 0)
(1.00138 -0.00737642 0)
(1.00002 -0.00731779 0)
(0.999199 -0.0072296 0)
(1.00154 -0.000792952 0)
(1.00168 -0.00283719 0)
(1.00194 -0.00461719 0)
(1.00223 -0.00664738 0)
(1.00256 -0.00870761 0)
(1.00285 -0.0108438 0)
(1.00307 -0.0129615 0)
(1.00317 -0.0149909 0)
(1.00312 -0.0168521 0)
(1.00292 -0.0184897 0)
(1.00257 -0.01987 0)
(1.00211 -0.0209718 0)
(1.00161 -0.0217887 0)
(1.0011 -0.022365 0)
(1.00054 -0.022848 0)
(0.999876 -0.0234743 0)
(0.999084 -0.0243315 0)
(0.99799 -0.0251954 0)
(0.995759 -0.025719 0)
(0.991062 -0.0256292 0)
(0.984182 -0.0249972 0)
(0.978962 -0.0242482 0)
(0.979281 -0.0235669 0)
(0.983712 -0.0227807 0)
(0.988252 -0.0218907 0)
(0.9912 -0.021058 0)
(0.992781 -0.0203523 0)
(0.993536 -0.0197765 0)
(0.993843 -0.0193137 0)
(1.00275 -0.00103823 0)
(1.003 -0.00369374 0)
(1.00343 -0.00600365 0)
(1.00396 -0.00864423 0)
(1.00452 -0.0113256 0)
(1.00503 -0.0141261 0)
(1.00542 -0.0169289 0)
(1.00562 -0.0196517 0)
(1.00557 -0.0221864 0)
(1.00529 -0.0244415 0)
(1.00478 -0.0263351 0)
(1.00411 -0.0277966 0)
(1.00333 -0.0288192 0)
(1.00246 -0.0294812 0)
(1.00151 -0.029838 0)
(1.00052 -0.0297068 0)
(0.999498 -0.0288564 0)
(0.998495 -0.0274378 0)
(0.998209 -0.0258847 0)
(1.00042 -0.0246225 0)
(1.00584 -0.0239169 0)
(1.01075 -0.0235607 0)
(1.01024 -0.0232127 0)
(1.00508 -0.0229608 0)
(0.999655 -0.0228739 0)
(0.996013 -0.0228009 0)
(0.993867 -0.0226732 0)
(0.992608 -0.0224954 0)
(0.99184 -0.0222836 0)
(1.004 -0.00123258 0)
(1.00437 -0.0043697 0)
(1.00499 -0.00710673 0)
(1.00576 -0.0102547 0)
(1.0066 -0.0134735 0)
(1.00738 -0.0168756 0)
(1.008 -0.0203327 0)
(1.00835 -0.0237522 0)
(1.00836 -0.0269955 0)
(1.00799 -0.0299344 0)
(1.00726 -0.032465 0)
(1.00618 -0.0345382 0)
(1.0048 -0.0361776 0)
(1.00321 -0.0374275 0)
(1.00153 -0.0383199 0)
(0.999811 -0.0390386 0)
(0.997919 -0.0399048 0)
(0.995588 -0.0410503 0)
(0.992253 -0.0421872 0)
(0.986937 -0.0427535 0)
(0.979569 -0.0423254 0)
(0.973457 -0.0410576 0)
(0.9731 -0.0396073 0)
(0.977592 -0.0382193 0)
(0.982116 -0.036789 0)
(0.984627 -0.0354562 0)
(0.985689 -0.0343144 0)
(0.986013 -0.0333553 0)
(0.985996 -0.0325615 0)
(1.00523 -0.00138063 0)
(1.00572 -0.00488286 0)
(1.00655 -0.00795616 0)
(1.00759 -0.0115186 0)
(1.00875 -0.0151977 0)
(1.00987 -0.0191456 0)
(1.0108 -0.0232315 0)
(1.01139 -0.0273614 0)
(1.01154 -0.0313795 0)
(1.01116 -0.0351412 0)
(1.01025 -0.0385218 0)
(1.00886 -0.0414315 0)
(1.00712 -0.0437822 0)
(1.00521 -0.045462 0)
(1.00325 -0.0464146 0)
(1.00128 -0.0466401 0)
(0.999332 -0.0460319 0)
(0.997412 -0.0445456 0)
(0.995899 -0.042561 0)
(0.995995 -0.040809 0)
(0.998792 -0.0398843 0)
(1.00212 -0.0398456 0)
(1.00119 -0.0399985 0)
(0.995454 -0.039874 0)
(0.989382 -0.0397367 0)
(0.985489 -0.0395937 0)
(0.983254 -0.0393495 0)
(0.981897 -0.0390368 0)
(0.981006 -0.0386778 0)
(1.00641 -0.00149051 0)
(1.00705 -0.00526041 0)
(1.0081 -0.00859118 0)
(1.00945 -0.0124829 0)
(1.01098 -0.0165441 0)
(1.0125 -0.0209714 0)
(1.01382 -0.0256413 0)
(1.01476 -0.0304693 0)
(1.01516 -0.0352912 0)
(1.01492 -0.0399394 0)
(1.014 -0.0442296 0)
(1.01247 -0.0479793 0)
(1.01045 -0.0510423 0)
(1.008 -0.0533436 0)
(1.00515 -0.054917 0)
(1.00196 -0.0559561 0)
(0.998498 -0.0568183 0)
(0.994825 -0.0578306 0)
(0.990856 -0.0590303 0)
(0.985872 -0.0600021 0)
(0.979009 -0.0600955 0)
(0.971823 -0.0589744 0)
(0.968726 -0.0571889 0)
(0.970887 -0.0555107 0)
(0.974096 -0.0538081 0)
(0.975547 -0.0520497 0)
(0.975737 -0.0504657 0)
(0.975418 -0.0490779 0)
(0.974905 -0.0478855 0)
(1.00756 -0.00157223 0)
(1.00833 -0.00553406 0)
(1.00963 -0.00905611 0)
(1.01131 -0.0132019 0)
(1.01323 -0.0175667 0)
(1.01519 -0.0223959 0)
(1.01697 -0.0275814 0)
(1.01835 -0.0330591 0)
(1.01913 -0.0386642 0)
(1.01914 -0.044211 0)
(1.01831 -0.0494823 0)
(1.01662 -0.0542705 0)
(1.01412 -0.0584381 0)
(1.01092 -0.0619078 0)
(1.00718 -0.064601 0)
(1.00314 -0.0664075 0)
(0.999156 -0.0671439 0)
(0.995561 -0.0666078 0)
(0.992645 -0.0649434 0)
(0.990964 -0.062772 0)
(0.991446 -0.0608835 0)
(0.99339 -0.0599011 0)
(0.992625 -0.059647 0)
(0.986727 -0.0592548 0)
(0.979414 -0.058769 0)
(0.974359 -0.0584472 0)
(0.971263 -0.0580418 0)
(0.969139 -0.0575376 0)
(0.967566 -0.0569727 0)
(1.00866 -0.00163586 0)
(1.00956 -0.00573502 0)
(1.0111 -0.009395 0)
(1.01311 -0.013732 0)
(1.01544 -0.0183268 0)
(1.01786 -0.0234752 0)
(1.02016 -0.0290916 0)
(1.02205 -0.0351416 0)
(1.02331 -0.0414763 0)
(1.0237 -0.0479158 0)
(1.02309 -0.0542416 0)
(1.02141 -0.0602201 0)
(1.01872 -0.0656261 0)
(1.01519 -0.0702339 0)
(1.011 -0.0738389 0)
(1.00634 -0.0763648 0)
(1.00133 -0.0780298 0)
(0.996107 -0.079438 0)
(0.990734 -0.0810564 0)
(0.984733 -0.082587 0)
(0.977094 -0.0833103 0)
(0.968266 -0.0826802 0)
(0.961972 -0.0808163 0)
(0.961292 -0.0787116 0)
(0.963267 -0.0766571 0)
(0.963815 -0.0743552 0)
(0.962979 -0.0721656 0)
(0.961786 -0.0702377 0)
(0.960541 -0.0685556 0)
(1.00969 -0.00168939 0)
(1.0107 -0.00588929 0)
(1.01247 -0.00964522 0)
(1.0148 -0.0141221 0)
(1.01754 -0.0188807 0)
(1.02045 -0.0242662 0)
(1.02329 -0.0302186 0)
(1.02578 -0.0367414 0)
(1.02762 -0.0437177 0)
(1.02855 -0.0509902 0)
(1.02837 -0.0583401 0)
(1.02697 -0.0654955 0)
(1.02435 -0.072161 0)
(1.02058 -0.078078 0)
(1.01572 -0.0830844 0)
(1.00996 -0.0871387 0)
(1.00366 -0.0901656 0)
(0.997403 -0.091768 0)
(0.991801 -0.0915075 0)
(0.987317 -0.0896917 0)
(0.984909 -0.0873237 0)
(0.985058 -0.085468 0)
(0.984404 -0.084616 0)
(0.978426 -0.0839207 0)
(0.969191 -0.0829523 0)
(0.962015 -0.0822576 0)
(0.957513 -0.0815866 0)
(0.954228 -0.0807469 0)
(0.951664 -0.0798379 0)
(1.01065 -0.00173807 0)
(1.01176 -0.00601606 0)
(1.01374 -0.00983545 0)
(1.01637 -0.0144096 0)
(1.01951 -0.0192744 0)
(1.0229 -0.0248196 0)
(1.0263 -0.0310116 0)
(1.02942 -0.0378975 0)
(1.03193 -0.0454027 0)
(1.03352 -0.0534061 0)
(1.03394 -0.0617065 0)
(1.03297 -0.0700383 0)
(1.03052 -0.0781039 0)
(1.02657 -0.0856167 0)
(1.02125 -0.0922912 0)
(1.01487 -0.0978285 0)
(1.00785 -0.101986 0)
(1.00055 -0.104885 0)
(0.992998 -0.107313 0)
(0.98492 -0.109875 0)
(0.97555 -0.11197 0)
(0.964335 -0.112463 0)
(0.953904 -0.110937 0)
(0.949218 -0.108529 0)
(0.949702 -0.106147 0)
(0.949615 -0.103339 0)
(0.947557 -0.100426 0)
(0.945181 -0.0978693 0)
(0.942929 -0.0956118 0)
(1.01157 -0.00178424 0)
(1.01276 -0.00612807 0)
(1.01491 -0.00998738 0)
(1.01782 -0.0146227 0)
(1.02131 -0.0195445 0)
(1.02517 -0.0251809 0)
(1.02912 -0.0315231 0)
(1.03289 -0.0386639 0)
(1.03612 -0.046578 0)
(1.03847 -0.0551958 0)
(1.03961 -0.0643594 0)
(1.03927 -0.0738363 0)
(1.03727 -0.0833187 0)
(1.03357 -0.0924325 0)
(1.02825 -0.100765 0)
(1.02149 -0.107975 0)
(1.01352 -0.11389 0)
(1.00477 -0.118371 0)
(0.995915 -0.120905 0)
(0.98783 -0.120939 0)
(0.981602 -0.118995 0)
(0.978666 -0.116731 0)
(0.977289 -0.115591 0)
(0.971254 -0.114992 0)
(0.959459 -0.113779 0)
(0.948714 -0.112694 0)
(0.942014 -0.111824 0)
(0.937148 -0.110616 0)
(0.933228 -0.109264 0)
(1.01245 -0.00182806 0)
(1.01372 -0.00623169 0)
(1.016 -0.0101161 0)
(1.01913 -0.0147823 0)
(1.02296 -0.0197195 0)
(1.02724 -0.0253894 0)
(1.03173 -0.0318031 0)
(1.03614 -0.0390971 0)
(1.04012 -0.0472989 0)
(1.04331 -0.0563987 0)
(1.04532 -0.0662938 0)
(1.04585 -0.0767917 0)
(1.04463 -0.0875925 0)
(1.04148 -0.0983097 0)
(1.03631 -0.108526 0)
(1.02917 -0.117865 0)
(1.02037 -0.125951 0)
(1.01053 -0.132406 0)
(1.00015 -0.137321 0)
(0.989184 -0.141674 0)
(0.977122 -0.145959 0)
(0.963014 -0.148845 0)
(0.947749 -0.148655 0)
(0.937151 -0.146156 0)
(0.93475 -0.14341 0)
(0.934168 -0.140234 0)
(0.93065 -0.136447 0)
(0.926483 -0.133079 0)
(0.922789 -0.130129 0)
(1.01328 -0.00186868 0)
(1.01462 -0.00632759 0)
(1.01702 -0.0102292 0)
(1.02034 -0.0149032 0)
(1.02445 -0.0198212 0)
(1.02913 -0.0254771 0)
(1.03412 -0.0318949 0)
(1.03916 -0.0392504 0)
(1.0439 -0.0476224 0)
(1.04796 -0.057063 0)
(1.05096 -0.0675332 0)
(1.0525 -0.0789023 0)
(1.05223 -0.0909305 0)
(1.04982 -0.103277 0)
(1.04507 -0.115496 0)
(1.03802 -0.127058 0)
(1.02896 -0.137407 0)
(1.01835 -0.146081 0)
(1.0067 -0.152651 0)
(0.994812 -0.156383 0)
(0.984087 -0.156792 0)
(0.9765 -0.155 0)
(0.972449 -0.153655 0)
(0.966122 -0.153764 0)
(0.951879 -0.153177 0)
(0.935728 -0.151817 0)
(0.925227 -0.150868 0)
(0.918149 -0.149387 0)
(0.912235 -0.147428 0)
(1.01405 -0.00190532 0)
(1.01546 -0.00641366 0)
(1.01797 -0.0103289 0)
(1.02144 -0.0149948 0)
(1.0258 -0.0198668 0)
(1.03082 -0.0254708 0)
(1.03628 -0.0318373 0)
(1.04191 -0.0391767 0)
(1.04739 -0.0476149 0)
(1.05233 -0.0572647 0)
(1.05634 -0.0681589 0)
(1.05897 -0.0802478 0)
(1.0598 -0.0933698 0)
(1.05845 -0.10723 0)
(1.05461 -0.12136 0)
(1.04813 -0.135181 0)
(1.03908 -0.148118 0)
(1.02778 -0.159643 0)
(1.01479 -0.169313 0)
(1.00056 -0.177458 0)
(0.985081 -0.185177 0)
(0.96754 -0.192128 0)
(0.947118 -0.195624 0)
(0.928432 -0.194193 0)
(0.919743 -0.190798 0)
(0.917893 -0.187313 0)
(0.912947 -0.182573 0)
(0.905925 -0.177883 0)
(0.900004 -0.173955 0)
(1.01475 -0.00193763 0)
(1.01623 -0.00648798 0)
(1.01884 -0.0104141 0)
(1.02244 -0.0150627 0)
(1.02701 -0.0198699 0)
(1.03233 -0.0253936 0)
(1.03821 -0.0316662 0)
(1.04438 -0.0389282 0)
(1.05055 -0.0473463 0)
(1.05635 -0.0570892 0)
(1.06138 -0.0682614 0)
(1.06519 -0.0808947 0)
(1.06733 -0.094907 0)
(1.06733 -0.110076 0)
(1.06473 -0.126007 0)
(1.05915 -0.142158 0)
(1.05049 -0.157901 0)
(1.03908 -0.172525 0)
(1.02549 -0.18522 0)
(1.01038 -0.194999 0)
(0.995054 -0.200577 0)
(0.981481 -0.201568 0)
(0.971835 -0.20057 0)
(0.963822 -0.201529 0)
(0.948257 -0.20312 0)
(0.92537 -0.202277 0)
(0.907746 -0.201156 0)
(0.897041 -0.199673 0)
(0.888 -0.19683 0)
(1.01539 -0.00196569 0)
(1.01691 -0.00655009 0)
(1.01962 -0.010484 0)
(1.02334 -0.0151094 0)
(1.0281 -0.0198411 0)
(1.03368 -0.0252653 0)
(1.03992 -0.0314133 0)
(1.04659 -0.0385512 0)
(1.05341 -0.0468783 0)
(1.06003 -0.0566112 0)
(1.06608 -0.067919 0)
(1.07112 -0.0809112 0)
(1.07468 -0.0955975 0)
(1.07619 -0.111869 0)
(1.07506 -0.129443 0)
(1.07077 -0.147822 0)
(1.0631 -0.166322 0)
(1.05219 -0.184165 0)
(1.03834 -0.200539 0)
(1.02179 -0.214916 0)
(1.0028 -0.22807 0)
(0.981137 -0.241063 0)
(0.955581 -0.251631 0)
(0.927648 -0.254866 0)
(0.907525 -0.251592 0)
(0.900609 -0.247535 0)
(0.894425 -0.242387 0)
(0.883176 -0.235702 0)
(0.873245 -0.230133 0)
(1.01596 -0.00198976 0)
(1.01753 -0.00660078 0)
(1.02032 -0.0105387 0)
(1.02414 -0.015137 0)
(1.02907 -0.0197878 0)
(1.03487 -0.0251013 0)
(1.04144 -0.0311041 0)
(1.04856 -0.0380838 0)
(1.05597 -0.0462641 0)
(1.06336 -0.0559003 0)
(1.0704 -0.0672186 0)
(1.07665 -0.0804045 0)
(1.08162 -0.095566 0)
(1.08472 -0.112713 0)
(1.0853 -0.131675 0)
(1.08272 -0.152041 0)
(1.07653 -0.173184 0)
(1.06664 -0.194381 0)
(1.05317 -0.214782 0)
(1.03643 -0.233181 0)
(1.01733 -0.247695 0)
(0.997769 -0.255985 0)
(0.980204 -0.25812 0)
(0.966772 -0.259637 0)
(0.950314 -0.264734 0)
(0.921521 -0.267472 0)
(0.891734 -0.266333 0)
(0.873421 -0.265072 0)
(0.859449 -0.261432 0)
(1.01648 -0.00201021 0)
(1.01809 -0.00664143 0)
(1.02094 -0.0105795 0)
(1.02486 -0.0151474 0)
(1.02993 -0.0197158 0)
(1.03594 -0.0249133 0)
(1.04279 -0.030759 0)
(1.05031 -0.0375576 0)
(1.05825 -0.0455511 0)
(1.06635 -0.0550247 0)
(1.0743 -0.0662541 0)
(1.08169 -0.079494 0)
(1.08805 -0.0949401 0)
(1.09281 -0.112709 0)
(1.09527 -0.132757 0)
(1.09469 -0.154817 0)
(1.09041 -0.178392 0)
(1.08214 -0.202803 0)
(1.06988 -0.227166 0)
(1.05354 -0.250331 0)
(1.03291 -0.271641 0)
(1.00768 -0.292428 0)
(0.977216 -0.313273 0)
(0.94108 -0.328313 0)
(0.905342 -0.33044 0)
(0.884474 -0.325485 0)
(0.87488 -0.320684 0)
(0.858948 -0.312639 0)
(0.841331 -0.304157 0)
(1.01695 -0.00202741 0)
(1.01859 -0.00667339 0)
(1.02149 -0.0106084 0)
(1.0255 -0.0151435 0)
(1.0307 -0.0196303 0)
(1.03688 -0.024711 0)
(1.04399 -0.0303943 0)
(1.05185 -0.0369993 0)
(1.06027 -0.0447802 0)
(1.06901 -0.0540456 0)
(1.07778 -0.0651091 0)
(1.08625 -0.0782824 0)
(1.09398 -0.0938345 0)
(1.10041 -0.111983 0)
(1.10484 -0.132821 0)
(1.10641 -0.156248 0)
(1.10439 -0.181922 0)
(1.09831 -0.209266 0)
(1.08794 -0.237555 0)
(1.07284 -0.265777 0)
(1.05284 -0.292158 0)
(1.02896 -0.313425 0)
(1.00358 -0.325652 0)
(0.980326 -0.330376 0)
(0.959964 -0.33822 0)
(0.928852 -0.349555 0)
(0.884067 -0.352437 0)
(0.84897 -0.351093 0)
(0.826496 -0.347939 0)
(1.01738 -0.00204174 0)
(1.01904 -0.00669791 0)
(1.02199 -0.0106277 0)
(1.02607 -0.0151284 0)
(1.03139 -0.0195357 0)
(1.03772 -0.0245021 0)
(1.04504 -0.0300233 0)
(1.05321 -0.0364297 0)
(1.06205 -0.0439833 0)
(1.07136 -0.0530096 0)
(1.0809 -0.0638483 0)
(1.09037 -0.0768558 0)
(1.0994 -0.0923633 0)
(1.10745 -0.110682 0)
(1.11381 -0.132036 0)
(1.11763 -0.156478 0)
(1.11812 -0.183846 0)
(1.11467 -0.213746 0)
(1.10684 -0.245611 0)
(1.09401 -0.278536 0)
(1.07533 -0.310962 0)
(1.04969 -0.342241 0)
(1.01618 -0.374895 0)
(0.974334 -0.408012 0)
(0.924467 -0.428277 0)
(0.879366 -0.428156 0)
(0.855367 -0.422856 0)
(0.835452 -0.416957 0)
(0.806018 -0.404998 0)
(1.01777 -0.00205356 0)
(1.01945 -0.00671607 0)
(1.02244 -0.0106392 0)
(1.02658 -0.015105 0)
(1.03199 -0.0194362 0)
(1.03845 -0.0242929 0)
(1.04596 -0.0296557 0)
(1.0544 -0.0358647 0)
(1.06361 -0.0431842 0)
(1.07344 -0.0519522 0)
(1.08367 -0.0625252 0)
(1.09407 -0.075294 0)
(1.10429 -0.0906418 0)
(1.11385 -0.108958 0)
(1.12208 -0.130578 0)
(1.12816 -0.155692 0)
(1.13128 -0.184335 0)
(1.13078 -0.216334 0)
(1.12602 -0.251294 0)
(1.11618 -0.288651 0)
(1.10001 -0.327253 0)
(1.07649 -0.364578 0)
(1.04711 -0.395669 0)
(1.01502 -0.414224 0)
(0.984064 -0.424674 0)
(0.950795 -0.445157 0)
(0.896725 -0.464751 0)
(0.833188 -0.466414 0)
(0.790631 -0.464576 0)
(1.01811 -0.00206324 0)
(1.01982 -0.00672897 0)
(1.02285 -0.0106445 0)
(1.02703 -0.015076 0)
(1.03253 -0.0193353 0)
(1.03909 -0.024088 0)
(1.04677 -0.0292987 0)
(1.05543 -0.0353155 0)
(1.06498 -0.0424011 0)
(1.07527 -0.0509017 0)
(1.08612 -0.0611849 0)
(1.09734 -0.0736665 0)
(1.10864 -0.0887697 0)
(1.1196 -0.106942 0)
(1.12961 -0.128612 0)
(1.13789 -0.154094 0)
(1.14365 -0.183603 0)
(1.14627 -0.217204 0)
(1.14497 -0.254705 0)
(1.13878 -0.295804 0)
(1.12638 -0.339696 0)
(1.10567 -0.384423 0)
(1.07447 -0.430009 0)
(1.03183 -0.481312 0)
(0.975867 -0.534339 0)
(0.906164 -0.56197 0)
(0.846699 -0.558848 0)
(0.812996 -0.555805 0)
(0.772913 -0.546609 0)
(1.01843 -0.00207109 0)
(1.02015 -0.0067376 0)
(1.0232 -0.0106451 0)
(1.02742 -0.0150434 0)
(1.03299 -0.0192356 0)
(1.03964 -0.0238911 0)
(1.04747 -0.0289578 0)
(1.05633 -0.0347909 0)
(1.06617 -0.041648 0)
(1.07685 -0.0498813 0)
(1.08825 -0.0598642 0)
(1.1002 -0.0720284 0)
(1.11248 -0.0868262 0)
(1.12472 -0.104746 0)
(1.13641 -0.126294 0)
(1.14677 -0.151891 0)
(1.1551 -0.1819 0)
(1.16086 -0.216608 0)
(1.16326 -0.256061 0)
(1.16115 -0.300162 0)
(1.15312 -0.348741 0)
(1.13683 -0.400805 0)
(1.11046 -0.453425 0)
(1.07621 -0.499347 0)
(1.03613 -0.52805 0)
(0.99335 -0.550856 0)
(0.938424 -0.595838 0)
(0.848866 -0.624912 0)
(0.759096 -0.622341 0)
(1.01871 -0.00207745 0)
(1.02044 -0.00674293 0)
(1.02352 -0.0106422 0)
(1.02777 -0.0150089 0)
(1.03341 -0.0191393 0)
(1.04013 -0.0237046 0)
(1.04808 -0.0286367 0)
(1.05711 -0.0342968 0)
(1.06719 -0.0409352 0)
(1.07822 -0.0489075 0)
(1.0901 -0.0585892 0)
(1.1027 -0.07042 0)
(1.11586 -0.0848719 0)
(1.12927 -0.102464 0)
(1.14248 -0.123758 0)
(1.15479 -0.14927 0)
(1.16556 -0.179472 0)
(1.17433 -0.214829 0)
(1.18049 -0.255646 0)
(1.18275 -0.302048 0)
(1.17959 -0.354199 0)
(1.16914 -0.411811 0)
(1.14831 -0.4732 0)
(1.11261 -0.539323 0)
(1.06048 -0.620289 0)
(0.987239 -0.708766 0)
(0.885952 -0.749296 0)
(0.796921 -0.743041 0)
(0.73944 -0.744323 0)
(1.01895 -0.00208255 0)
(1.0207 -0.00674573 0)
(1.0238 -0.0106369 0)
(1.02808 -0.0149739 0)
(1.03376 -0.0190478 0)
(1.04055 -0.0235302 0)
(1.0486 -0.0283379 0)
(1.05778 -0.033837 0)
(1.06808 -0.0402694 0)
(1.07941 -0.0479918 0)
(1.0917 -0.0573785 0)
(1.10488 -0.0688719 0)
(1.11882 -0.0829566 0)
(1.13328 -0.100172 0)
(1.14785 -0.121121 0)
(1.16194 -0.146392 0)
(1.17498 -0.176551 0)
(1.1866 -0.21218 0)
(1.19636 -0.2538 0)
(1.20313 -0.301817 0)
(1.20515 -0.35656 0)
(1.20069 -0.418537 0)
(1.18738 -0.488294 0)
(1.16161 -0.563182 0)
(1.12349 -0.631837 0)
(1.07372 -0.676775 0)
(1.01455 -0.727331 0)
(0.920786 -0.823718 0)
(0.763658 -0.857014 0)
(1.01918 -0.00208664 0)
(1.02093 -0.0067467 0)
(1.02405 -0.0106299 0)
(1.02836 -0.0149395 0)
(1.03408 -0.018962 0)
(1.04092 -0.0233688 0)
(1.04906 -0.0280627 0)
(1.05836 -0.0334136 0)
(1.06884 -0.039654 0)
(1.08043 -0.0471407 0)
(1.09308 -0.0562443 0)
(1.10676 -0.0674064 0)
(1.12139 -0.0811179 0)
(1.13677 -0.0979314 0)
(1.15255 -0.118476 0)
(1.16825 -0.143394 0)
(1.18338 -0.173327 0)
(1.19764 -0.208939 0)
(1.21073 -0.250874 0)
(1.22188 -0.299831 0)
(1.2293 -0.356403 0)
(1.23099 -0.421212 0)
(1.22626 -0.495912 0)
(1.21106 -0.580527 0)
(1.17306 -0.675163 0)
(1.11252 -0.802618 0)
(1.02805 -0.965369 0)
(0.866707 -1.04431 0)
(0.682391 -1.02734 0)
(1.01937 -0.0020899 0)
(1.02114 -0.00674634 0)
(1.02427 -0.0106219 0)
(1.0286 -0.0149064 0)
(1.03435 -0.0188827 0)
(1.04124 -0.023221 0)
(1.04945 -0.0278116 0)
(1.05886 -0.0330271 0)
(1.0695 -0.0390908 0)
(1.08131 -0.0463584 0)
(1.09428 -0.0551951 0)
(1.10839 -0.0660397 0)
(1.12361 -0.0793839 0)
(1.13979 -0.0957875 0)
(1.15665 -0.115896 0)
(1.17378 -0.140387 0)
(1.19078 -0.169962 0)
(1.20747 -0.20535 0)
(1.22361 -0.247248 0)
(1.23872 -0.296526 0)
(1.25153 -0.354171 0)
(1.25969 -0.420779 0)
(1.26249 -0.498315 0)
(1.25902 -0.591545 0)
(1.24156 -0.6999 0)
(1.20612 -0.802649 0)
(1.14835 -0.875838 0)
(1.06629 -1.00189 0)
(0.873599 -1.21314 0)
(1.01955 -0.00209249 0)
(1.02132 -0.00674509 0)
(1.02446 -0.0106134 0)
(1.02881 -0.0148752 0)
(1.03459 -0.01881 0)
(1.04152 -0.0230867 0)
(1.04979 -0.0275842 0)
(1.05929 -0.0326772 0)
(1.07006 -0.0385798 0)
(1.08206 -0.0456459 0)
(1.0953 -0.0542347 0)
(1.10978 -0.0647802 0)
(1.12551 -0.0777714 0)
(1.14239 -0.0937701 0)
(1.16021 -0.11343 0)
(1.17859 -0.137455 0)
(1.19725 -0.166582 0)
(1.21611 -0.201593 0)
(1.23504 -0.243215 0)
(1.25365 -0.292341 0)
(1.27137 -0.350277 0)
(1.28614 -0.417963 0)
(1.29629 -0.496826 0)
(1.30446 -0.592539 0)
(1.30716 -0.708537 0)
(1.27792 -0.835472 0)
(1.21697 -1.02618 0)
(1.14493 -1.37426 0)
(0.804154 -1.51855 0)
(0.998803 -0.00607022 0)
(0.999095 -0.00598293 0)
(0.999279 -0.00589502 0)
(0.999352 -0.00580693 0)
(0.999294 -0.00571876 0)
(0.999079 -0.00563008 0)
(0.998666 -0.00554032 0)
(0.99801 -0.00544887 0)
(0.997065 -0.00535518 0)
(0.995791 -0.00525883 0)
(0.994168 -0.00515952 0)
(0.992207 -0.00505702 0)
(0.989958 -0.004951 0)
(0.98752 -0.00484077 0)
(0.985038 -0.00472511 0)
(0.982691 -0.00460212 0)
(0.980676 -0.00446937 0)
(0.979178 -0.00432425 0)
(0.978341 -0.0041645 0)
(0.99869 -0.00712194 0)
(0.998352 -0.0070008 0)
(0.998129 -0.0068645 0)
(0.998016 -0.00671441 0)
(0.99802 -0.00655066 0)
(0.998162 -0.00637426 0)
(0.998479 -0.00618696 0)
(0.999016 -0.00599125 0)
(0.999823 -0.00579046 0)
(1.00094 -0.00558892 0)
(1.0024 -0.00539198 0)
(1.00419 -0.00520609 0)
(1.00625 -0.00503866 0)
(1.00849 -0.00489791 0)
(1.01074 -0.00479242 0)
(1.01283 -0.00473039 0)
(1.01454 -0.00471861 0)
(1.01569 -0.00476112 0)
(1.01616 -0.00485786 0)
(0.993918 -0.018936 0)
(0.993865 -0.0185938 0)
(0.99371 -0.0182537 0)
(0.993463 -0.0179155 0)
(0.993122 -0.0175803 0)
(0.992675 -0.0172495 0)
(0.992106 -0.0169246 0)
(0.991394 -0.0166074 0)
(0.99052 -0.0162998 0)
(0.989472 -0.0160038 0)
(0.988256 -0.0157205 0)
(0.986905 -0.0154504 0)
(0.985479 -0.0151925 0)
(0.984075 -0.0149442 0)
(0.982814 -0.0147008 0)
(0.98183 -0.0144551 0)
(0.981242 -0.0141987 0)
(0.981135 -0.0139222 0)
(0.981531 -0.0136166 0)
(0.991349 -0.0220597 0)
(0.991005 -0.0218299 0)
(0.990764 -0.0215905 0)
(0.990629 -0.0213448 0)
(0.990619 -0.0210931 0)
(0.990764 -0.0208362 0)
(0.991104 -0.0205742 0)
(0.991684 -0.0203067 0)
(0.99255 -0.0200319 0)
(0.993732 -0.0197464 0)
(0.995241 -0.0194448 0)
(0.997046 -0.01912 0)
(0.999068 -0.0187632 0)
(1.00118 -0.0183655 0)
(1.00319 -0.0179194 0)
(1.0049 -0.0174208 0)
(1.0061 -0.0168708 0)
(1.00663 -0.0162767 0)
(1.0064 -0.0156516 0)
(0.98583 -0.0318968 0)
(0.98559 -0.0312825 0)
(0.985283 -0.0306613 0)
(0.984919 -0.0300307 0)
(0.984495 -0.0293898 0)
(0.983997 -0.0287366 0)
(0.983399 -0.0280686 0)
(0.982665 -0.0273839 0)
(0.981755 -0.0266814 0)
(0.980628 -0.0259617 0)
(0.979253 -0.0252281 0)
(0.977627 -0.0244873 0)
(0.975787 -0.0237494 0)
(0.973823 -0.0230264 0)
(0.97188 -0.0223309 0)
(0.970145 -0.0216722 0)
(0.96882 -0.0210537 0)
(0.968078 -0.0204701 0)
(0.968018 -0.0199078 0)
(0.980371 -0.0383017 0)
(0.97986 -0.0379157 0)
(0.979413 -0.0375104 0)
(0.979025 -0.0370886 0)
(0.978707 -0.0366481 0)
(0.978479 -0.0361874 0)
(0.978375 -0.0357048 0)
(0.978445 -0.0351979 0)
(0.978746 -0.0346628 0)
(0.97934 -0.0340936 0)
(0.980279 -0.0334812 0)
(0.981587 -0.0328127 0)
(0.98324 -0.0320712 0)
(0.985143 -0.0312371 0)
(0.987122 -0.0302923 0)
(0.988933 -0.0292245 0)
(0.990294 -0.0280337 0)
(0.990943 -0.0267368 0)
(0.990701 -0.0253683 0)
(0.97434 -0.0468578 0)
(0.973739 -0.0458835 0)
(0.973079 -0.0448757 0)
(0.972361 -0.0438335 0)
(0.971577 -0.0427585 0)
(0.970711 -0.0416512 0)
(0.969733 -0.040512 0)
(0.968601 -0.0393423 0)
(0.967254 -0.0381452 0)
(0.965624 -0.0369266 0)
(0.963639 -0.035697 0)
(0.961242 -0.0344733 0)
(0.958427 -0.033279 0)
(0.955261 -0.0321436 0)
(0.951923 -0.0310985 0)
(0.948704 -0.0301702 0)
(0.945981 -0.0293709 0)
(0.944144 -0.0286911 0)
(0.943494 -0.0280958 0)
(0.966323 -0.0563809 0)
(0.965231 -0.0557732 0)
(0.96419 -0.0551348 0)
(0.963194 -0.0544711 0)
(0.96225 -0.0537823 0)
(0.961379 -0.0530698 0)
(0.960618 -0.052336 0)
(0.960025 -0.0515828 0)
(0.95968 -0.0508114 0)
(0.959683 -0.0500204 0)
(0.960148 -0.0492035 0)
(0.961178 -0.0483467 0)
(0.962831 -0.0474258 0)
(0.965073 -0.0464051 0)
(0.967732 -0.0452407 0)
(0.970477 -0.0438882 0)
(0.972843 -0.0423162 0)
(0.974312 -0.0405209 0)
(0.97445 -0.0385368 0)
(0.959359 -0.0670954 0)
(0.958207 -0.065703 0)
(0.957026 -0.0642585 0)
(0.955823 -0.0627631 0)
(0.954599 -0.0612206 0)
(0.953346 -0.0596325 0)
(0.952042 -0.0579994 0)
(0.950645 -0.0563213 0)
(0.949086 -0.0545976 0)
(0.947265 -0.0528285 0)
(0.945049 -0.0510174 0)
(0.942288 -0.0491745 0)
(0.938849 -0.047321 0)
(0.934678 -0.045493 0)
(0.929872 -0.0437405 0)
(0.92475 -0.0421209 0)
(0.919868 -0.0406836 0)
(0.915947 -0.0394509 0)
(0.913684 -0.0384015 0)
(0.949587 -0.0788988 0)
(0.947733 -0.0779365 0)
(0.94595 -0.0769205 0)
(0.944228 -0.0758576 0)
(0.942571 -0.0747494 0)
(0.940989 -0.0735988 0)
(0.939505 -0.0724102 0)
(0.938162 -0.0711889 0)
(0.937025 -0.0699413 0)
(0.9362 -0.0686739 0)
(0.935832 -0.067392 0)
(0.936097 -0.0660957 0)
(0.937174 -0.0647741 0)
(0.939179 -0.063399 0)
(0.942071 -0.0619195 0)
(0.945558 -0.060265 0)
(0.949055 -0.0583593 0)
(0.951749 -0.0561471 0)
(0.95281 -0.0536248 0)
(0.940868 -0.0936322 0)
(0.93892 -0.0917348 0)
(0.936976 -0.0897601 0)
(0.935053 -0.0877119 0)
(0.93316 -0.0855938 0)
(0.931301 -0.0834078 0)
(0.929466 -0.0811547 0)
(0.927634 -0.0788347 0)
(0.925755 -0.0764467 0)
(0.923743 -0.0739879 0)
(0.921457 -0.0714548 0)
(0.918701 -0.0688458 0)
(0.915229 -0.0661671 0)
(0.910806 -0.0634412 0)
(0.905313 -0.0607155 0)
(0.898893 -0.0580648 0)
(0.892089 -0.0555803 0)
(0.885864 -0.0533409 0)
(0.881402 -0.0513752 0)
(0.930055 -0.107868 0)
(0.927219 -0.106416 0)
(0.924492 -0.104861 0)
(0.921866 -0.103214 0)
(0.919338 -0.101482 0)
(0.916914 -0.0996753 0)
(0.914604 -0.0978022 0)
(0.912431 -0.0958729 0)
(0.910433 -0.0938973 0)
(0.908682 -0.0918862 0)
(0.907294 -0.0898515 0)
(0.906451 -0.0878047 0)
(0.906395 -0.0857529 0)
(0.907385 -0.0836895 0)
(0.909599 -0.0815813 0)
(0.912963 -0.0793562 0)
(0.916982 -0.0769038 0)
(0.920683 -0.074103 0)
(0.922809 -0.0708757 0)
(0.91943 -0.12749 0)
(0.916307 -0.124957 0)
(0.91324 -0.122307 0)
(0.910252 -0.119548 0)
(0.907364 -0.116681 0)
(0.904584 -0.113702 0)
(0.901911 -0.11061 0)
(0.899334 -0.107403 0)
(0.896824 -0.104077 0)
(0.894324 -0.100631 0)
(0.891729 -0.0970611 0)
(0.888867 -0.0933631 0)
(0.885476 -0.0895341 0)
(0.881213 -0.0855811 0)
(0.875729 -0.0815362 0)
(0.868845 -0.077474 0)
(0.860824 -0.0735192 0)
(0.852606 -0.069824 0)
(0.845782 -0.0665086 0)
(0.907503 -0.145387 0)
(0.903289 -0.143182 0)
(0.899246 -0.140765 0)
(0.895372 -0.138156 0)
(0.891655 -0.135377 0)
(0.888096 -0.132456 0)
(0.884701 -0.129416 0)
(0.881481 -0.126283 0)
(0.878456 -0.12308 0)
(0.875666 -0.119832 0)
(0.873186 -0.116563 0)
(0.871151 -0.113295 0)
(0.869781 -0.110056 0)
(0.869389 -0.106862 0)
(0.870331 -0.103712 0)
(0.872844 -0.100559 0)
(0.876754 -0.0972801 0)
(0.881191 -0.0936803 0)
(0.884554 -0.0895535 0)
(0.894662 -0.17032 0)
(0.889706 -0.166806 0)
(0.884915 -0.163101 0)
(0.880293 -0.159206 0)
(0.875888 -0.155126 0)
(0.871719 -0.150851 0)
(0.867791 -0.146381 0)
(0.864105 -0.141716 0)
(0.860646 -0.136857 0)
(0.857381 -0.131807 0)
(0.854242 -0.126567 0)
(0.85111 -0.12114 0)
(0.84777 -0.115523 0)
(0.843881 -0.109718 0)
(0.838962 -0.103742 0)
(0.832501 -0.0976552 0)
(0.824249 -0.0916026 0)
(0.814721 -0.0858245 0)
(0.805628 -0.0806074 0)
(0.880663 -0.193712 0)
(0.874262 -0.190232 0)
(0.868096 -0.186264 0)
(0.862252 -0.181912 0)
(0.856704 -0.177198 0)
(0.85146 -0.172192 0)
(0.846537 -0.166947 0)
(0.841939 -0.161517 0)
(0.83768 -0.155964 0)
(0.833779 -0.150343 0)
(0.830277 -0.14472 0)
(0.827252 -0.139157 0)
(0.824857 -0.133726 0)
(0.823361 -0.128495 0)
(0.823179 -0.123528 0)
(0.824813 -0.11885 0)
(0.828593 -0.114394 0)
(0.834149 -0.109933 0)
(0.839853 -0.105068 0)
(0.864741 -0.224948 0)
(0.856659 -0.219672 0)
(0.849007 -0.214068 0)
(0.841693 -0.208012 0)
(0.834815 -0.201572 0)
(0.828442 -0.19475 0)
(0.822581 -0.187572 0)
(0.817273 -0.180083 0)
(0.812522 -0.17232 0)
(0.80833 -0.164328 0)
(0.804667 -0.156144 0)
(0.80147 -0.147804 0)
(0.7986 -0.139332 0)
(0.795786 -0.130743 0)
(0.792555 -0.122042 0)
(0.788183 -0.113254 0)
(0.781821 -0.104488 0)
(0.773038 -0.0960026 0)
(0.762856 -0.0882906 0)
(0.847248 -0.256402 0)
(0.836974 -0.250842 0)
(0.82703 -0.24414 0)
(0.817691 -0.236678 0)
(0.80903 -0.228485 0)
(0.801027 -0.219674 0)
(0.793798 -0.210382 0)
(0.787347 -0.200707 0)
(0.781718 -0.190787 0)
(0.776917 -0.180748 0)
(0.772962 -0.170736 0)
(0.769869 -0.160898 0)
(0.767694 -0.151395 0)
(0.766569 -0.142393 0)
(0.766786 -0.134063 0)
(0.768871 -0.126567 0)
(0.773555 -0.119983 0)
(0.781337 -0.114252 0)
(0.791441 -0.108841 0)
(0.827393 -0.296911 0)
(0.813845 -0.28871 0)
(0.801075 -0.279772 0)
(0.78915 -0.269811 0)
(0.778038 -0.258887 0)
(0.768058 -0.247178 0)
(0.759183 -0.234731 0)
(0.751552 -0.221739 0)
(0.745188 -0.208337 0)
(0.740142 -0.194688 0)
(0.7364 -0.180938 0)
(0.733937 -0.167221 0)
(0.732655 -0.15365 0)
(0.732356 -0.140307 0)
(0.732649 -0.127235 0)
(0.732812 -0.114437 0)
(0.731648 -0.101996 0)
(0.727641 -0.0900202 0)
(0.719722 -0.0791039 0)
(0.805843 -0.340217 0)
(0.788208 -0.331311 0)
(0.771646 -0.320311 0)
(0.75592 -0.307475 0)
(0.7418 -0.293322 0)
(0.729068 -0.277799 0)
(0.718075 -0.261316 0)
(0.708839 -0.244047 0)
(0.70148 -0.226275 0)
(0.695996 -0.208273 0)
(0.692416 -0.190324 0)
(0.690696 -0.17273 0)
(0.690798 -0.15581 0)
(0.692695 -0.139905 0)
(0.696453 -0.125384 0)
(0.702361 -0.112659 0)
(0.711146 -0.101993 0)
(0.723812 -0.0938506 0)
(0.741784 -0.0879208 0)
(0.781248 -0.394539 0)
(0.758753 -0.382611 0)
(0.736521 -0.367897 0)
(0.7166 -0.351493 0)
(0.698182 -0.332674 0)
(0.682147 -0.312297 0)
(0.668446 -0.290463 0)
(0.65734 -0.267581 0)
(0.648848 -0.244035 0)
(0.643095 -0.220162 0)
(0.640033 -0.19633 0)
(0.639667 -0.172879 0)
(0.641901 -0.150124 0)
(0.646577 -0.128339 0)
(0.653371 -0.10773 0)
(0.661645 -0.0883069 0)
(0.670054 -0.0703486 0)
(0.676959 -0.053564 0)
(0.677597 -0.038426 0)
(0.757403 -0.455949 0)
(0.725612 -0.440992 0)
(0.69767 -0.42369 0)
(0.670992 -0.401861 0)
(0.647618 -0.377629 0)
(0.627272 -0.3509 0)
(0.610406 -0.322286 0)
(0.597021 -0.292431 0)
(0.587352 -0.2617 0)
(0.581269 -0.230644 0)
(0.578884 -0.199707 0)
(0.580095 -0.169363 0)
(0.584857 -0.140126 0)
(0.593058 -0.11256 0)
(0.604594 -0.0873046 0)
(0.619441 -0.065361 0)
(0.638408 -0.0470554 0)
(0.66125 -0.0342135 0)
(0.693389 -0.0274275 0)
(0.726623 -0.528728 0)
(0.688717 -0.512341 0)
(0.650736 -0.488026 0)
(0.617161 -0.460228 0)
(0.587576 -0.428497 0)
(0.562539 -0.393536 0)
(0.542082 -0.356754 0)
(0.526554 -0.318297 0)
(0.515523 -0.279089 0)
(0.509313 -0.239533 0)
(0.507655 -0.20014 0)
(0.510658 -0.161411 0)
(0.518278 -0.123843 0)
(0.530508 -0.0879879 0)
(0.547226 -0.0545182 0)