/*--------------------------------*- C++ -*----------------------------------*\
  =========                 |
  \\      /  F ield         | OpenFOAM: The Open Source CFD Toolbox
   \\    /   O peration     | Website:  https://openfoam.org
    \\  /    A nd           | Version:  10
     \\/     M anipulation  |
\*---------------------------------------------------------------------------*/
FoamFile
{
    format      ascii;
    class       volVectorField;
    location    "0";
    object      U;
}
// * * * * * * * * * * * * * * * * * * * * * * * * * * * * * * * * * * * * * //

dimensions      [0 1 -1 0 0 0 0];

internalField   nonuniform List<vector> 
18483
(
(0.999998 -0.000259578 0)
(0.999998 -0.000912402 0)
(1 -0.00141243 0)
(1 -0.00191205 0)
(1.00001 -0.00233804 0)
(1.00001 -0.00270194 0)
(1.00002 -0.00299123 0)
(1.00002 -0.00320186 0)
(1.00003 -0.00333302 0)
(1.00003 -0.00338913 0)
(1.00003 -0.00338273 0)
(1.00004 -0.00333174 0)
(1.00004 -0.00324812 0)
(1.00006 -0.00316474 0)
(1.00008 -0.0031219 0)
(1.00011 -0.00315093 0)
(1.00007 -0.00322818 0)
(0.999753 -0.00326506 0)
(0.998564 -0.00320321 0)
(0.995875 -0.00301994 0)
(0.992173 -0.00281884 0)
(0.989522 -0.00271294 0)
(0.989484 -0.00264405 0)
(0.991412 -0.0025149 0)
(0.993756 -0.00231326 0)
(0.995644 -0.00208158 0)
(0.996927 -0.00185513 0)
(0.997732 -0.00165184 0)
(0.99822 -0.00147728 0)
(1.00079 -0.000765951 0)
(1.00078 -0.0026744 0)
(1.0008 -0.00413237 0)
(1.00079 -0.00558791 0)
(1.00076 -0.00681203 0)
(1.00069 -0.00784258 0)
(1.00059 -0.00863746 0)
(1.00046 -0.00918327 0)
(1.00029 -0.00947529 0)
(1.0001 -0.00952031 0)
(0.999887 -0.00933482 0)
(0.999682 -0.00896878 0)
(0.999503 -0.00848331 0)
(0.999364 -0.00783801 0)
(0.999265 -0.00697531 0)
(0.999168 -0.00585934 0)
(0.999025 -0.00454032 0)
(0.999012 -0.00320981 0)
(0.999796 -0.00205971 0)
(1.00238 -0.00130597 0)
(1.00657 -0.000891521 0)
(1.00982 -0.00054647 0)
(1.00968 -0.000229765 0)
(1.00684 -1.19995e-05 0)
(1.00353 0.000104853 0)
(1.00099 0.000174827 0)
(0.999359 0.000244499 0)
(0.998386 0.000327811 0)
(0.997823 0.000423729 0)
(1.00227 -0.00122101 0)
(1.00226 -0.00424356 0)
(1.00231 -0.0065676 0)
(1.00227 -0.00891065 0)
(1.00218 -0.0108908 0)
(1.00198 -0.0125769 0)
(1.00167 -0.0138895 0)
(1.00124 -0.0148039 0)
(1.0007 -0.0153047 0)
(1.00008 -0.0154084 0)
(0.999379 -0.0151448 0)
(0.998653 -0.0145702 0)
(0.997962 -0.0137592 0)
(0.997344 -0.0127701 0)
(0.996755 -0.0117346 0)
(0.996139 -0.0109161 0)
(0.995471 -0.0104056 0)
(0.994655 -0.0100491 0)
(0.993258 -0.00960493 0)
(0.990589 -0.00882723 0)
(0.986759 -0.00758344 0)
(0.983733 -0.00614993 0)
(0.983683 -0.00483022 0)
(0.986101 -0.00359853 0)
(0.988895 -0.00245748 0)
(0.990939 -0.00145188 0)
(0.992187 -0.000594333 0)
(0.992898 0.000124008 0)
(0.993295 0.000719043 0)
(1.00407 -0.00162405 0)
(1.00409 -0.00562978 0)
(1.00417 -0.00874682 0)
(1.00413 -0.0119363 0)
(1.00399 -0.0146777 0)
(1.00365 -0.0170745 0)
(1.0031 -0.0190054 0)
(1.00232 -0.0204325 0)
(1.00134 -0.0213198 0)
(1.00019 -0.0216721 0)
(0.998939 -0.0215106 0)
(0.997646 -0.0208613 0)
(0.996396 -0.0198033 0)
(0.995231 -0.0184567 0)
(0.994159 -0.0169264 0)
(0.993208 -0.0151107 0)
(0.992439 -0.0128308 0)
(0.991911 -0.01023 0)
(0.992022 -0.00766981 0)
(0.993576 -0.00549602 0)
(0.996732 -0.00397829 0)
(0.999484 -0.002991 0)
(0.999259 -0.00215442 0)
(0.996271 -0.00141109 0)
(0.992832 -0.000780369 0)
(0.990307 -0.00019406 0)
(0.988749 0.000374396 0)
(0.987836 0.000923271 0)
(0.987298 0.00144627 0)
(1.006 -0.00198248 0)
(1.00606 -0.00686568 0)
(1.00619 -0.0107209 0)
(1.00619 -0.0147325 0)
(1.00602 -0.0182609 0)
(1.00557 -0.0214449 0)
(1.0048 -0.0241187 0)
(1.00369 -0.0262234 0)
(1.00227 -0.0276867 0)
(1.00058 -0.0284787 0)
(0.998709 -0.0286053 0)
(0.996721 -0.0281083 0)
(0.994679 -0.0270886 0)
(0.992658 -0.0256885 0)
(0.990728 -0.0240305 0)
(0.988927 -0.0222425 0)
(0.98719 -0.0206067 0)
(0.985428 -0.0193095 0)
(0.983401 -0.0181771 0)
(0.980562 -0.0168428 0)
(0.976722 -0.0150085 0)
(0.973334 -0.0127062 0)
(0.97262 -0.010381 0)
(0.97455 -0.00829663 0)
(0.976984 -0.00639264 0)
(0.978621 -0.00470539 0)
(0.979468 -0.00325584 0)
(0.979843 -0.00202296 0)
(0.979977 -0.000981585 0)
(1.00801 -0.00230003 0)
(1.00814 -0.00796496 0)
(1.00836 -0.0125057 0)
(1.00843 -0.0173105 0)
(1.00829 -0.0216412 0)
(1.00779 -0.0256728 0)
(1.00686 -0.0291966 0)
(1.00546 -0.0321298 0)
(1.00359 -0.0343613 0)
(1.00132 -0.0358339 0)
(0.998713 -0.0365426 0)
(0.995879 -0.0365408 0)
(0.992945 -0.0358988 0)
(0.990061 -0.0346729 0)
(0.987356 -0.0329346 0)
(0.984894 -0.0307397 0)
(0.982714 -0.0280549 0)
(0.980908 -0.0248248 0)
(0.979698 -0.0212248 0)
(0.979642 -0.0177371 0)
(0.981124 -0.0148842 0)
(0.982936 -0.012894 0)
(0.982652 -0.0114037 0)
(0.979779 -0.010007 0)
(0.976319 -0.0087399 0)
(0.973772 -0.00758682 0)
(0.972182 -0.00649141 0)
(0.971197 -0.00545711 0)
(0.970554 -0.00449157 0)
(1.0101 -0.00257534 0)
(1.01032 -0.00892124 0)
(1.01066 -0.0140832 0)
(1.01087 -0.019632 0)
(1.01084 -0.0247514 0)
(1.01037 -0.0296566 0)
(1.00936 -0.0341012 0)
(1.00774 -0.0379832 0)
(1.00549 -0.0411523 0)
(1.00267 -0.0435179 0)
(0.999385 -0.0450269 0)
(0.995792 -0.0456735 0)
(0.992081 -0.0454728 0)
(0.988391 -0.0444649 0)
(0.984783 -0.0427756 0)
(0.981264 -0.0406312 0)
(0.977811 -0.0383738 0)
(0.974389 -0.036331 0)
(0.970929 -0.0345286 0)
(0.967219 -0.0326792 0)
(0.963059 -0.03042 0)
(0.959166 -0.0275218 0)
(0.957339 -0.0243148 0)
(0.958107 -0.0213695 0)
(0.959718 -0.018716 0)
(0.960687 -0.0163038 0)
(0.960958 -0.0141943 0)
(0.960867 -0.0123739 0)
(0.960631 -0.0108154 0)
(1.01222 -0.00280692 0)
(1.01255 -0.00972756 0)
(1.01306 -0.0154342 0)
(1.01346 -0.0216569 0)
(1.01361 -0.0275218 0)
(1.01327 -0.0332875 0)
(1.01228 -0.0386767 0)
(1.01054 -0.0435719 0)
(1.00803 -0.047778 0)
(1.00477 -0.0511567 0)
(1.00089 -0.0535945 0)
(0.996558 -0.0550368 0)
(0.991938 -0.0555096 0)
(0.987164 -0.0551093 0)
(0.982345 -0.0539836 0)
(0.977605 -0.0522611 0)
(0.973102 -0.0499238 0)
(0.969011 -0.0468067 0)
(0.965571 -0.042867 0)
(0.963276 -0.0385107 0)
(0.962656 -0.0344462 0)
(0.963133 -0.0312511 0)
(0.962588 -0.0288858 0)
(0.959781 -0.0267474 0)
(0.956078 -0.0247007 0)
(0.953172 -0.0228644 0)
(0.951259 -0.0211601 0)
(0.94997 -0.0195723 0)
(0.94905 -0.0181121 0)
(1.01432 -0.00299635 0)
(1.01477 -0.0103878 0)
(1.01548 -0.0165576 0)
(1.01612 -0.0233722 0)
(1.01651 -0.0299176 0)
(1.01637 -0.0364975 0)
(1.0155 -0.0428122 0)
(1.01376 -0.0487325 0)
(1.01108 -0.0540231 0)
(1.00747 -0.0585033 0)
(1.00303 -0.0620177 0)
(0.997904 -0.0644781 0)
(0.992303 -0.0658765 0)
(0.986454 -0.066246 0)
(0.980581 -0.0656211 0)
(0.974833 -0.0640415 0)
(0.969233 -0.0616897 0)
(0.963685 -0.0590652 0)
(0.95817 -0.0566606 0)
(0.952785 -0.0544549 0)
(0.94749 -0.0520013 0)
(0.942486 -0.0488485 0)
(0.93896 -0.0450005 0)
(0.937923 -0.0411542 0)
(0.93833 -0.0376969 0)
(0.938504 -0.0344957 0)
(0.938118 -0.0316196 0)
(0.937498 -0.0291048 0)
(0.936845 -0.026922 0)
(1.01634 -0.00314785 0)
(1.01693 -0.0109152 0)
(1.01785 -0.0174691 0)
(1.01876 -0.0247904 0)
(1.01945 -0.0319393 0)
(1.01958 -0.0392662 0)
(1.01893 -0.0464586 0)
(1.01728 -0.0533838 0)
(1.01454 -0.0597769 0)
(1.01067 -0.065422 0)
(1.00577 -0.07012 0)
(0.999981 -0.0737223 0)
(0.993562 -0.0761383 0)
(0.986768 -0.0773322 0)
(0.979799 -0.0773582 0)
(0.972744 -0.0763623 0)
(0.965645 -0.0745256 0)
(0.95871 -0.0719046 0)
(0.952443 -0.0683292 0)
(0.947435 -0.0638161 0)
(0.944124 -0.0589726 0)
(0.942376 -0.0546495 0)
(0.940729 -0.0512808 0)
(0.937479 -0.0483546 0)
(0.933081 -0.045423 0)
(0.929297 -0.0427017 0)
(0.926667 -0.0402101 0)
(0.924799 -0.0378911 0)
(0.923395 -0.0357685 0)
(1.01825 -0.00326677 0)
(1.01898 -0.0113275 0)
(1.02012 -0.0181931 0)
(1.02134 -0.025939 0)
(1.02236 -0.0336107 0)
(1.02283 -0.0416066 0)
(1.02247 -0.049611 0)
(1.02102 -0.057495 0)
(1.01834 -0.0649708 0)
(1.01437 -0.0717897 0)
(1.00917 -0.077704 0)
(1.00288 -0.0825087 0)
(0.99574 -0.0860638 0)
(0.987962 -0.0883069 0)
(0.979764 -0.0892698 0)
(0.971355 -0.0890061 0)
(0.962933 -0.0875397 0)
(0.954695 -0.0850755 0)
(0.946772 -0.0822154 0)
(0.939194 -0.0795371 0)
(0.931932 -0.076906 0)
(0.924995 -0.0736084 0)
(0.919029 -0.069243 0)
(0.915311 -0.0644661 0)
(0.913805 -0.0600744 0)
(0.912848 -0.0560079 0)
(0.911559 -0.0522387 0)
(0.91017 -0.048885 0)
(0.90889 -0.0459289 0)
(1.02003 -0.00335866 0)
(1.0209 -0.0116435 0)
(1.02227 -0.0187573 0)
(1.0238 -0.0268525 0)
(1.02519 -0.0349683 0)
(1.02604 -0.0435516 0)
(1.02604 -0.0522908 0)
(1.02489 -0.0610656 0)
(1.02239 -0.0695735 0)
(1.01845 -0.0775417 0)
(1.01307 -0.084687 0)
(1.00638 -0.0907685 0)
(0.998555 -0.0956078 0)
(0.989847 -0.0990778 0)
(0.980525 -0.101109 0)
(0.970854 -0.101699 0)
(0.961017 -0.100956 0)
(0.951213 -0.0991073 0)
(0.941866 -0.0962557 0)
(0.93359 -0.0921948 0)
(0.926916 -0.0870006 0)
(0.922024 -0.0816023 0)
(0.918185 -0.0770458 0)
(0.913736 -0.0731902 0)
(0.908111 -0.0692644 0)
(0.90276 -0.0654042 0)
(0.898793 -0.0618695 0)
(0.895903 -0.0585682 0)
(0.893669 -0.0555304 0)
(1.02167 -0.00342873 0)
(1.02268 -0.011881 0)
(1.02429 -0.0191891 0)
(1.02613 -0.0275673 0)
(1.0279 -0.0360536 0)
(1.02917 -0.0451438 0)
(1.02958 -0.0545357 0)
(1.02879 -0.0641236 0)
(1.02657 -0.0736009 0)
(1.02275 -0.082683 0)
(1.0173 -0.0910618 0)
(1.01031 -0.0984616 0)
(1.00197 -0.104653 0)
(0.992529 -0.109444 0)
(0.982225 -0.112711 0)
(0.971304 -0.114446 0)
(0.96003 -0.114722 0)
(0.948761 -0.11362 0)
(0.937845 -0.111376 0)
(0.92736 -0.108559 0)
(0.917221 -0.105621 0)
(0.907441 -0.102214 0)
(0.898358 -0.0975255 0)
(0.891142 -0.0917421 0)
(0.886757 -0.0860791 0)
(0.884081 -0.0809015 0)
(0.881506 -0.0759734 0)
(0.878934 -0.0714778 0)
(0.876658 -0.0674733 0)
(1.02318 -0.0034815 0)
(1.02432 -0.0120557 0)
(1.02616 -0.0195131 0)
(1.02831 -0.0281171 0)
(1.03047 -0.0369077 0)
(1.03217 -0.0464292 0)
(1.03302 -0.0563937 0)
(1.03266 -0.0667155 0)
(1.03077 -0.0770925 0)
(1.02717 -0.0872349 0)
(1.02179 -0.0968125 0)
(1.01469 -0.105516 0)
(1.00604 -0.113081 0)
(0.996025 -0.119286 0)
(0.984858 -0.12398 0)
(0.972809 -0.127094 0)
(0.960238 -0.128627 0)
(0.947508 -0.128634 0)
(0.934891 -0.127203 0)
(0.922786 -0.124244 0)
(0.911898 -0.119549 0)
(0.902842 -0.113561 0)
(0.895557 -0.107656 0)
(0.88886 -0.102645 0)
(0.881388 -0.0977273 0)
(0.873693 -0.0925187 0)
(0.867485 -0.0875912 0)
(0.862931 -0.082987 0)
(0.859391 -0.0786778 0)
(1.02456 -0.00352064 0)
(1.02583 -0.0121803 0)
(1.02788 -0.0197503 0)
(1.03034 -0.0285317 0)
(1.03288 -0.0375682 0)
(1.03502 -0.0474526 0)
(1.03634 -0.057914 0)
(1.03643 -0.0688899 0)
(1.03495 -0.0800874 0)
(1.03167 -0.091216 0)
(1.02649 -0.10193 0)
(1.01942 -0.111901 0)
(1.01059 -0.120847 0)
(1.00015 -0.128535 0)
(0.988305 -0.134773 0)
(0.975343 -0.139437 0)
(0.961633 -0.142495 0)
(0.947505 -0.143937 0)
(0.933204 -0.143731 0)
(0.91895 -0.142061 0)
(0.904946 -0.139519 0)
(0.891337 -0.1364 0)
(0.878239 -0.131976 0)
(0.866484 -0.125594 0)
(0.85776 -0.118397 0)
(0.852194 -0.111676 0)
(0.847715 -0.105215 0)
(0.84335 -0.0990638 0)
(0.839507 -0.0935111 0)
(1.02581 -0.00354915 0)
(1.0272 -0.0122656 0)
(1.02947 -0.019918 0)
(1.03222 -0.0288365 0)
(1.03513 -0.0380685 0)
(1.0377 -0.0482551 0)
(1.03949 -0.0591428 0)
(1.04006 -0.0706937 0)
(1.03904 -0.0826288 0)
(1.03616 -0.0946627 0)
(1.03126 -0.106444 0)
(1.02432 -0.117636 0)
(1.01543 -0.127942 0)
(1.00474 -0.137114 0)
(0.992446 -0.144942 0)
(0.978816 -0.151286 0)
(0.964184 -0.156086 0)
(0.948849 -0.159258 0)
(0.932967 -0.160653 0)
(0.916802 -0.160094 0)
(0.901112 -0.157279 0)
(0.88685 -0.152089 0)
(0.874557 -0.145534 0)
(0.863985 -0.139358 0)
(0.853627 -0.133597 0)
(0.84261 -0.12712 0)
(0.832706 -0.12042 0)
(0.825271 -0.114096 0)
(0.819578 -0.108026 0)
(1.02696 -0.00356946 0)
(1.02845 -0.0123201 0)
(1.03092 -0.0200311 0)
(1.03394 -0.0290535 0)
(1.0372 -0.0384381 0)
(1.0402 -0.0488736 0)
(1.04246 -0.060123 0)
(1.04353 -0.0721739 0)
(1.04299 -0.0847668 0)
(1.04054 -0.097627 0)
(1.03597 -0.110402 0)
(1.02924 -0.122747 0)
(1.02044 -0.134349 0)
(1.00969 -0.144955 0)
(0.997183 -0.154366 0)
(0.983138 -0.16245 0)
(0.967868 -0.169126 0)
(0.951588 -0.174259 0)
(0.934334 -0.177614 0)
(0.916271 -0.179011 0)
(0.897854 -0.178686 0)
(0.879437 -0.177205 0)
(0.861182 -0.174337 0)
(0.843581 -0.168767 0)
(0.828456 -0.160602 0)
(0.817709 -0.152026 0)
(0.809972 -0.143749 0)
(0.802784 -0.135396 0)
(0.79627 -0.127553 0)
(1.028 -0.00358346 0)
(1.02959 -0.012351 0)
(1.03224 -0.0201016 0)
(1.03552 -0.029201 0)
(1.03912 -0.0387022 0)
(1.04253 -0.0493407 0)
(1.04524 -0.0608941 0)
(1.0468 -0.0733773 0)
(1.04676 -0.0865538 0)
(1.04475 -0.100162 0)
(1.04058 -0.113847 0)
(1.03416 -0.127257 0)
(1.02557 -0.140068 0)
(1.01492 -0.152032 0)
(1.00237 -0.162973 0)
(0.988154 -0.17278 0)
(0.972538 -0.18138 0)
(0.955629 -0.188633 0)
(0.937326 -0.194265 0)
(0.917717 -0.19793 0)
(0.897434 -0.199159 0)
(0.877479 -0.197271 0)
(0.858777 -0.192218 0)
(0.842109 -0.1858 0)
(0.826995 -0.17978 0)
(0.811334 -0.172958 0)
(0.795584 -0.164591 0)
(0.782836 -0.15613 0)
(0.773256 -0.1478 0)
(1.02895 -0.00359263 0)
(1.03064 -0.0123638 0)
(1.03346 -0.0201394 0)
(1.03697 -0.0292939 0)
(1.04089 -0.038882 0)
(1.04468 -0.0496844 0)
(1.04783 -0.0614916 0)
(1.04987 -0.074346 0)
(1.05032 -0.0880363 0)
(1.04879 -0.102312 0)
(1.04506 -0.116821 0)
(1.03901 -0.131204 0)
(1.03071 -0.145131 0)
(1.02025 -0.158358 0)
(1.00781 -0.170733 0)
(0.993645 -0.182178 0)
(0.977971 -0.192659 0)
(0.960793 -0.202069 0)
(0.941873 -0.210142 0)
(0.921139 -0.216502 0)
(0.898932 -0.220858 0)
(0.875625 -0.223435 0)
(0.851468 -0.224517 0)
(0.826884 -0.22278 0)
(0.803107 -0.216237 0)
(0.783435 -0.206485 0)
(0.769416 -0.196466 0)
(0.757593 -0.185889 0)
(0.746342 -0.175017 0)
(1.02981 -0.00359811 0)
(1.03158 -0.0123632 0)
(1.03456 -0.0201524 0)
(1.03829 -0.0293445 0)
(1.04251 -0.0389954 0)
(1.04666 -0.0499291 0)
(1.05023 -0.0619461 0)
(1.05274 -0.0751172 0)
(1.05368 -0.0892556 0)
(1.05264 -0.104124 0)
(1.04936 -0.119373 0)
(1.04372 -0.13464 0)
(1.03573 -0.149587 0)
(1.02554 -0.163968 0)
(1.01334 -0.177648 0)
(0.999407 -0.190594 0)
(0.983937 -0.202836 0)
(0.966846 -0.214339 0)
(0.947761 -0.224917 0)
(0.926454 -0.234235 0)
(0.903134 -0.241718 0)
(0.878376 -0.246315 0)
(0.853108 -0.246688 0)
(0.828583 -0.243062 0)
(0.806044 -0.238382 0)
(0.784002 -0.233457 0)
(0.760065 -0.225383 0)
(0.737801 -0.214985 0)
(0.720807 -0.20426 0)
(1.0306 -0.00360078 0)
(1.03244 -0.0123527 0)
(1.03557 -0.020147 0)
(1.03949 -0.0293626 0)
(1.04399 -0.0390573 0)
(1.04846 -0.0500949 0)
(1.05244 -0.0622835 0)
(1.05539 -0.0757227 0)
(1.05681 -0.0902498 0)
(1.05626 -0.105641 0)
(1.05344 -0.121553 0)
(1.0482 -0.137621 0)
(1.04058 -0.15349 0)
(1.03071 -0.168906 0)
(1.01884 -0.183747 0)
(1.00527 -0.198027 0)
(0.990213 -0.211852 0)
(0.973524 -0.225291 0)
(0.954728 -0.238275 0)
(0.933457 -0.250563 0)
(0.909618 -0.261661 0)
(0.883099 -0.271111 0)
(0.853898 -0.279213 0)
(0.822393 -0.285629 0)
(0.789011 -0.28663 0)
(0.756348 -0.27959 0)
(0.730224 -0.268889 0)
(0.71037 -0.257292 0)
(0.691368 -0.243497 0)
(1.0313 -0.00360138 0)
(1.03321 -0.0123351 0)
(1.03647 -0.0201284 0)
(1.04057 -0.0293565 0)
(1.04533 -0.03908 0)
(1.05011 -0.0501989 0)
(1.05446 -0.062526 0)
(1.05784 -0.0761915 0)
(1.05972 -0.0910544 0)
(1.05964 -0.106906 0)
(1.05727 -0.12341 0)
(1.05245 -0.140195 0)
(1.04521 -0.156891 0)
(1.03571 -0.173226 0)
(1.02422 -0.189087 0)
(1.01109 -0.204525 0)
(0.996584 -0.219721 0)
(0.980549 -0.234869 0)
(0.962439 -0.250056 0)
(0.941751 -0.265217 0)
(0.918187 -0.280016 0)
(0.891478 -0.293525 0)
(0.861897 -0.303876 0)
(0.830394 -0.308774 0)
(0.798468 -0.309064 0)
(0.767479 -0.309317 0)
(0.733967 -0.307207 0)
(0.697045 -0.297815 0)
(0.665582 -0.285266 0)
(1.03193 -0.00360046 0)
(1.03391 -0.0123128 0)
(1.03729 -0.0201007 0)
(1.04154 -0.0293328 0)
(1.04655 -0.0390736 0)
(1.0516 -0.050255 0)
(1.0563 -0.0626927 0)
(1.06008 -0.0765485 0)
(1.06239 -0.0917003 0)
(1.06277 -0.107956 0)
(1.06084 -0.124985 0)
(1.05645 -0.142409 0)
(1.0496 -0.159841 0)
(1.04047 -0.176989 0)
(1.02938 -0.193737 0)
(1.01674 -0.210157 0)
(1.00287 -0.2265 0)
(0.987662 -0.243092 0)
(0.970557 -0.260194 0)
(0.950953 -0.277925 0)
(0.928411 -0.29614 0)
(0.902213 -0.314273 0)
(0.87142 -0.33196 0)
(0.835775 -0.35005 0)
(0.79508 -0.366901 0)
(0.748606 -0.373573 0)
(0.7024 -0.366992 0)
(0.666305 -0.356549 0)
(0.635658 -0.342548 0)
(1.0325 -0.00359849 0)
(1.03453 -0.0122876 0)
(1.03801 -0.0200672 0)
(1.04242 -0.0292968 0)
(1.04763 -0.0390462 0)
(1.05294 -0.0502748 0)
(1.05797 -0.0628002 0)
(1.06211 -0.0768154 0)
(1.06484 -0.0922146 0)
(1.06564 -0.108822 0)
(1.06415 -0.126314 0)
(1.06018 -0.144307 0)
(1.05372 -0.162394 0)
(1.04495 -0.180259 0)
(1.03425 -0.19777 0)
(1.02211 -0.215011 0)
(1.00891 -0.232286 0)
(0.994639 -0.250042 0)
(0.978761 -0.268727 0)
(0.960626 -0.288654 0)
(0.93965 -0.309948 0)
(0.915049 -0.332455 0)
(0.885909 -0.355089 0)
(0.851991 -0.374812 0)
(0.813522 -0.387819 0)
(0.772018 -0.396945 0)
(0.727923 -0.408942 0)
(0.67411 -0.412357 0)
(0.615941 -0.400712 0)
(1.033 -0.0035958 0)
(1.03508 -0.012261 0)
(1.03866 -0.0200303 0)
(1.04319 -0.0292528 0)
(1.04861 -0.0390041 0)
(1.05414 -0.0502677 0)
(1.05947 -0.0628619 0)
(1.06395 -0.0770102 0)
(1.06706 -0.0926202 0)
(1.06828 -0.109533 0)
(1.0672 -0.127433 0)
(1.06362 -0.14593 0)
(1.05753 -0.164598 0)
(1.04912 -0.183094 0)
(1.0388 -0.201258 0)
(1.02714 -0.219174 0)
(1.01463 -0.237188 0)
(1.00132 -0.255843 0)
(0.986773 -0.275759 0)
(0.97038 -0.297468 0)
(0.95144 -0.321276 0)
(0.929204 -0.347353 0)
(0.902379 -0.37559 0)
(0.868491 -0.406134 0)
(0.826477 -0.441758 0)
(0.774825 -0.47939 0)
(0.70767 -0.497959 0)
(0.636937 -0.493509 0)
(0.582061 -0.484119 0)
(1.03344 -0.00359265 0)
(1.03557 -0.012234 0)
(1.03924 -0.0199919 0)
(1.04389 -0.0292042 0)
(1.04948 -0.0389528 0)
(1.05522 -0.0502413 0)
(1.06082 -0.0628891 0)
(1.06561 -0.0771481 0)
(1.06908 -0.092937 0)
(1.07067 -0.110115 0)
(1.06998 -0.128373 0)
(1.06678 -0.147316 0)
(1.06104 -0.166499 0)
(1.05296 -0.185547 0)
(1.043 -0.204269 0)
(1.0318 -0.222736 0)
(1.01994 -0.241321 0)
(1.00758 -0.260645 0)
(0.99438 -0.28146 0)
(0.97986 -0.304512 0)
(0.963284 -0.330307 0)
(0.943764 -0.359299 0)
(0.920575 -0.392298 0)
(0.89196 -0.428627 0)
(0.855342 -0.462983 0)
(0.80965 -0.489221 0)
(0.757034 -0.518815 0)
(0.689295 -0.560978 0)
(0.590872 -0.571771 0)
(1.03384 -0.00358925 0)
(1.03601 -0.0122075 0)
(1.03975 -0.0199534 0)
(1.04451 -0.0291535 0)
(1.05025 -0.038896 0)
(1.05618 -0.0502018 0)
(1.06202 -0.0628909 0)
(1.0671 -0.0772415 0)
(1.07089 -0.093182 0)
(1.07284 -0.11059 0)
(1.07251 -0.129161 0)
(1.06965 -0.148497 0)
(1.06424 -0.168134 0)
(1.05648 -0.187666 0)
(1.04685 -0.206865 0)
(1.03607 -0.225777 0)
(1.02481 -0.244793 0)
(1.01336 -0.264592 0)
(1.00146 -0.286018 0)
(0.988777 -0.309987 0)
(0.974753 -0.337261 0)
(0.958334 -0.368352 0)
(0.939202 -0.404341 0)
(0.916025 -0.446723 0)
(0.882099 -0.49647 0)
(0.835396 -0.561975 0)
(0.776457 -0.646039 0)
(0.673646 -0.698014 0)
(0.533226 -0.695528 0)
(1.03419 -0.00358575 0)
(1.03639 -0.012182 0)
(1.0402 -0.0199158 0)
(1.04505 -0.0291028 0)
(1.05093 -0.038837 0)
(1.05703 -0.0501541 0)
(1.06309 -0.0628748 0)
(1.06843 -0.077301 0)
(1.07251 -0.0933698 0)
(1.07478 -0.110975 0)
(1.07478 -0.12982 0)
(1.07225 -0.149502 0)
(1.06714 -0.169539 0)
(1.05967 -0.189494 0)
(1.05035 -0.2091 0)
(1.03993 -0.228374 0)
(1.02922 -0.247704 0)
(1.0186 -0.267821 0)
(1.00793 -0.289637 0)
(0.99696 -0.314153 0)
(0.985443 -0.34238 0)
(0.972407 -0.374992 0)
(0.957149 -0.412944 0)
(0.94021 -0.459539 0)
(0.919101 -0.516729 0)
(0.886262 -0.572888 0)
(0.835975 -0.617173 0)
(0.774309 -0.703296 0)
(0.643388 -0.833013 0)
(1.0345 -0.00358225 0)
(1.03674 -0.012158 0)
(1.0406 -0.0198798 0)
(1.04554 -0.0290533 0)
(1.05154 -0.038778 0)
(1.05778 -0.0501017 0)
(1.06404 -0.0628464 0)
(1.0696 -0.0773348 0)
(1.07396 -0.0935118 0)
(1.07652 -0.111287 0)
(1.07682 -0.13037 0)
(1.07459 -0.150355 0)
(1.06976 -0.170744 0)
(1.06255 -0.191069 0)
(1.05349 -0.211023 0)
(1.0434 -0.230589 0)
(1.03316 -0.250144 0)
(1.0233 -0.27045 0)
(1.01376 -0.292482 0)
(1.00436 -0.31727 0)
(0.995102 -0.345961 0)
(0.985442 -0.379544 0)
(0.974352 -0.418635 0)
(0.963287 -0.466132 0)
(0.952649 -0.527206 0)
(0.9276 -0.60023 0)
(0.885294 -0.70786 0)
(0.840053 -0.909324 0)
(0.627664 -1.02294 0)
(0.99851 -0.00132882 0)
(0.998685 -0.00119116 0)
(0.998776 -0.00105255 0)
(0.998788 -0.00091352 0)
(0.998718 -0.000774482 0)
(0.998559 -0.000635611 0)
(0.998295 -0.000497228 0)
(0.997908 -0.000359938 0)
(0.997377 -0.000224699 0)
(0.996682 -9.29098e-05 0)
(0.995811 3.35473e-05 0)
(0.994766 0.000152351 0)
(0.993564 0.000260911 0)
(0.99225 0.00035668 0)
(0.990889 0.000437608 0)
(0.989572 0.000502682 0)
(0.988402 0.000552451 0)
(0.987487 0.000589394 0)
(0.98692 0.000618009 0)
(0.9975 0.000524234 0)
(0.997308 0.000626121 0)
(0.997206 0.000730175 0)
(0.997185 0.000834427 0)
(0.997247 0.000938754 0)
(0.9974 0.00104306 0)
(0.997663 0.00114753 0)
(0.99806 0.00125295 0)
(0.998621 0.00136091 0)
(0.999375 0.00147405 0)
(1.00034 0.00159626 0)
(1.00153 0.00173274 0)
(1.00293 0.00188988 0)
(1.00448 0.00207482 0)
(1.00611 0.0022946 0)
(1.00769 0.00255498 0)
(1.00909 0.00285913 0)
(1.01016 0.00320631 0)
(1.01077 0.00359109 0)
(0.993517 0.0012167 0)
(0.993647 0.00167498 0)
(0.993711 0.00213519 0)
(0.993715 0.00259876 0)
(0.993652 0.00306616 0)
(0.99351 0.00353865 0)
(0.993265 0.00401756 0)
(0.992886 0.00450391 0)
(0.992335 0.00499821 0)
(0.991573 0.0055 0)
(0.990563 0.0060074 0)
(0.989282 0.00651657 0)
(0.987726 0.00702139 0)
(0.985927 0.00751346 0)
(0.983961 0.00798259 0)
(0.981945 0.00841794 0)
(0.980038 0.00880961 0)
(0.978422 0.00915064 0)
(0.977276 0.00943878 0)
(0.986967 0.00193433 0)
(0.98674 0.00240779 0)
(0.986574 0.00289011 0)
(0.986457 0.00337836 0)
(0.986387 0.0038721 0)
(0.98637 0.00437044 0)
(0.986424 0.00487196 0)
(0.986577 0.00537498 0)
(0.986869 0.00587761 0)
(0.987347 0.00637807 0)
(0.988064 0.00687517 0)
(0.989064 0.00736903 0)
(0.990378 0.00786178 0)
(0.992001 0.00835813 0)
(0.993886 0.00886554 0)
(0.995929 0.00939364 0)
(0.997973 0.00995292 0)
(0.999821 0.0105525 0)
(1.00126 0.0111978 0)
(0.979993 -9.43984e-05 0)
(0.97995 0.000730102 0)
(0.979862 0.00156064 0)
(0.979734 0.00239768 0)
(0.979567 0.00324059 0)
(0.979353 0.00408962 0)
(0.979079 0.00494516 0)
(0.978723 0.00580762 0)
(0.978255 0.00667747 0)
(0.977635 0.00755506 0)
(0.97682 0.00844007 0)
(0.975763 0.00933088 0)
(0.974426 0.0102236 0)
(0.972793 0.0111114 0)
(0.970889 0.0119836 0)
(0.968792 0.0128264 0)
(0.966643 0.0136236 0)
(0.964638 0.0143598 0)
(0.96301 0.015023 0)
(0.970103 -0.00360303 0)
(0.969745 -0.0027464 0)
(0.969433 -0.00187517 0)
(0.96916 -0.000993801 0)
(0.968923 -0.000103358 0)
(0.968729 0.00079421 0)
(0.968595 0.00169598 0)
(0.968544 0.00259824 0)
(0.968615 0.00349646 0)
(0.968856 0.00438547 0)
(0.96933 0.00526 0)
(0.970104 0.00611558 0)
(0.971242 0.00694988 0)
(0.972793 0.00776437 0)
(0.974763 0.00856582 0)
(0.9771 0.0093673 0)
(0.979676 0.0101878 0)
(0.982282 0.0110499 0)
(0.984651 0.0119761 0)
(0.960355 -0.00947446 0)
(0.960064 -0.00822151 0)
(0.959758 -0.00695676 0)
(0.959449 -0.0056817 0)
(0.959145 -0.00439941 0)
(0.958852 -0.00311181 0)
(0.958569 -0.00182044 0)
(0.958292 -0.00052641 0)
(0.958006 0.00077011 0)
(0.957682 0.00207018 0)
(0.957276 0.00337613 0)
(0.956727 0.00469121 0)
(0.95596 0.0060186 0)
(0.954896 0.00735982 0)
(0.953471 0.00871269 0)
(0.951666 0.0100693 0)
(0.949529 0.0114148 0)
(0.947206 0.0127289 0)
(0.944934 0.0139886 0)
(0.948359 -0.0167822 0)
(0.947783 -0.0155073 0)
(0.94727 -0.0142146 0)
(0.946814 -0.0129093 0)
(0.946417 -0.0115916 0)
(0.946086 -0.0102621 0)
(0.945828 -0.00892154 0)
(0.945658 -0.0075709 0)
(0.945595 -0.00621147 0)
(0.945664 -0.00484513 0)
(0.945906 -0.00347454 0)
(0.946369 -0.00210303 0)
(0.947118 -0.000734083 0)
(0.948223 0.00062997 0)
(0.949746 0.00198999 0)
(0.951716 0.00335256 0)
(0.954097 0.00473215 0)
(0.956759 0.00615146 0)
(0.959463 0.00763861 0)
(0.936237 -0.0250235 0)
(0.935664 -0.0232358 0)
(0.935102 -0.0214205 0)
(0.934564 -0.0195798 0)
(0.934059 -0.0177165 0)
(0.933591 -0.0158318 0)
(0.933165 -0.0139269 0)
(0.932778 -0.0120027 0)
(0.932423 -0.0100597 0)
(0.932083 -0.00809781 0)
(0.931727 -0.00611603 0)
(0.931305 -0.00411225 0)
(0.930747 -0.00208362 0)
(0.929959 -2.75085e-05 0)
(0.928834 0.00205651 0)
(0.927275 0.00416367 0)
(0.92523 0.00628074 0)
(0.922743 0.00838413 0)
(0.919992 0.0104414 0)
(0.922297 -0.0338419 0)
(0.921355 -0.0319949 0)
(0.920487 -0.0301171 0)
(0.919691 -0.0282153 0)
(0.918965 -0.0262901 0)
(0.918313 -0.0243424 0)
(0.917739 -0.0223731 0)
(0.917252 -0.0203828 0)
(0.916861 -0.0183721 0)
(0.916579 -0.0163418 0)
(0.916426 -0.0142927 0)
(0.916436 -0.0122265 0)
(0.916657 -0.0101456 0)
(0.917159 -0.00805291 0)
(0.91803 -0.00595044 0)
(0.919362 -0.00383647 0)
(0.921222 -0.00170176 0)
(0.923597 0.000474229 0)
(0.926341 0.00272382 0)
(0.907766 -0.043322 0)
(0.906734 -0.040844 0)
(0.905738 -0.0383099 0)
(0.904788 -0.035724 0)
(0.903892 -0.0330889 0)
(0.903055 -0.0304055 0)
(0.902277 -0.0276745 0)
(0.90156 -0.0248967 0)
(0.900896 -0.0220732 0)
(0.900276 -0.019205 0)
(0.899679 -0.0162934 0)
(0.899073 -0.0133401 0)
(0.898405 -0.0103466 0)
(0.897597 -0.00731499 0)
(0.896539 -0.00424876 0)
(0.895098 -0.00115566 0)
(0.893143 0.00194819 0)
(0.890599 0.00503343 0)
(0.887533 0.00805541 0)
(0.891885 -0.0527707 0)
(0.890332 -0.0501136 0)
(0.888879 -0.0473964 0)
(0.887521 -0.0446308 0)
(0.886254 -0.0418222 0)
(0.885079 -0.0389762 0)
(0.884 -0.036099 0)
(0.883022 -0.0331968 0)
(0.882151 -0.0302758 0)
(0.881399 -0.0273417 0)
(0.88078 -0.0244002 0)
(0.880318 -0.0214563 0)
(0.880053 -0.0185148 0)
(0.880046 -0.0155799 0)
(0.880391 -0.0126541 0)
(0.881213 -0.00973621 0)
(0.882654 -0.00681634 0)
(0.884821 -0.00386902 0)
(0.887698 -0.00084731 0)
(0.874705 -0.0638981 0)
(0.872937 -0.0604761 0)
(0.871247 -0.0569628 0)
(0.869649 -0.0533686 0)
(0.868155 -0.0496985 0)
(0.86677 -0.0459553 0)
(0.8655 -0.0421411 0)
(0.864344 -0.0382581 0)
(0.8633 -0.0343082 0)
(0.86236 -0.0302935 0)
(0.861511 -0.0262162 0)
(0.860726 -0.0220792 0)
(0.859964 -0.017886 0)
(0.859159 -0.0136414 0)
(0.858207 -0.00935238 0)
(0.856956 -0.00503048 0)
(0.855209 -0.000697183 0)
(0.852764 0.00360771 0)
(0.849512 0.00781785 0)
(0.856556 -0.074734 0)
(0.854094 -0.0709048 0)
(0.851804 -0.0669537 0)
(0.849679 -0.0629042 0)
(0.847714 -0.0587719 0)
(0.845911 -0.0545737 0)
(0.844271 -0.0503278 0)
(0.842796 -0.0460536 0)
(0.841491 -0.0417708 0)
(0.840361 -0.0374996 0)
(0.839417 -0.0332596 0)
(0.838675 -0.0290699 0)
(0.838164 -0.0249477 0)
(0.837934 -0.0209083 0)
(0.838071 -0.0169627 0)
(0.838712 -0.0131158 0)
(0.840057 -0.00935998 0)
(0.842334 -0.00566377 0)
(0.845705 -0.00195811 0)
(0.836264 -0.0884945 0)
(0.833362 -0.0836488 0)
(0.830629 -0.0786493 0)
(0.828093 -0.0735189 0)
(0.825774 -0.0682731 0)
(0.823687 -0.0629241 0)
(0.821841 -0.0574835 0)
(0.820242 -0.051963 0)
(0.81889 -0.046373 0)
(0.817779 -0.0407227 0)
(0.816897 -0.03502 0)
(0.816218 -0.029271 0)
(0.815704 -0.0234813 0)
(0.815288 -0.0176558 0)
(0.814868 -0.0118018 0)
(0.814275 -0.00593102 0)
(0.813253 -6.78377e-05 0)
(0.811457 0.00573563 0)
(0.808523 0.0113846 0)
(0.815015 -0.102343 0)
(0.811095 -0.0967445 0)
(0.807505 -0.0908803 0)
(0.804242 -0.0848005 0)
(0.801311 -0.0785407 0)
(0.79872 -0.0721398 0)
(0.796475 -0.0656402 0)
(0.79458 -0.0590873 0)
(0.793036 -0.0525293 0)
(0.791842 -0.0460166 0)
(0.790995 -0.039602 0)
(0.790496 -0.0333396 0)
(0.790355 -0.0272841 0)
(0.790599 -0.0214891 0)
(0.79129 -0.0160017 0)
(0.792551 -0.0108612 0)
(0.794614 -0.0060864 0)
(0.797814 -0.00165369 0)
(0.802551 0.00251694 0)
(0.790832 -0.120359 0)
(0.786007 -0.113272 0)
(0.781527 -0.105862 0)
(0.777459 -0.0981755 0)
(0.773848 -0.0902504 0)
(0.770732 -0.0821282 0)
(0.768138 -0.0738529 0)
(0.766086 -0.0654722 0)
(0.764584 -0.0570334 0)
(0.763632 -0.0485822 0)
(0.763217 -0.0401589 0)
(0.763314 -0.0317971 0)
(0.763876 -0.0235215 0)
(0.764827 -0.0153451 0)
(0.766047 -0.0072771 0)
(0.767347 0.000681734 0)
(0.768391 0.00852037 0)
(0.768687 0.0161771 0)
(0.767545 0.0235399 0)
(0.765557 -0.139611 0)
(0.758951 -0.131328 0)
(0.752971 -0.12244 0)
(0.747627 -0.113043 0)
(0.742971 -0.103218 0)
(0.739039 -0.093049 0)
(0.735872 -0.0826312 0)
(0.733491 -0.072063 0)
(0.731909 -0.0614512 0)
(0.731125 -0.0509072 0)
(0.731121 -0.0405497 0)
(0.731872 -0.0305043 0)
(0.733345 -0.0209023 0)
(0.735514 -0.0118876 0)
(0.738386 -0.00359692 0)
(0.742008 0.00382177 0)
(0.746624 0.0102428 0)
(0.752627 0.0156355 0)
(0.760635 0.0200108 0)
(0.736782 -0.16475 0)
(0.728348 -0.154317 0)
(0.720529 -0.1431 0)
(0.713523 -0.131205 0)
(0.707441 -0.118702 0)
(0.70239 -0.105697 0)
(0.698438 -0.0923077 0)
(0.695648 -0.0786709 0)
(0.694053 -0.064927 0)
(0.693668 -0.0512227 0)
(0.694484 -0.0377005 0)
(0.69647 -0.0244918 0)
(0.699565 -0.0117124 0)
(0.703675 0.000565543 0)
(0.708626 0.0122791 0)
(0.714234 0.023442 0)
(0.719988 0.0340968 0)
(0.725228 0.0441731 0)
(0.728983 0.053643 0)
(0.707306 -0.192912 0)
(0.695512 -0.180768 0)
(0.684846 -0.1673 0)
(0.675348 -0.152616 0)
(0.667186 -0.136912 0)
(0.660477 -0.120369 0)
(0.655355 -0.103191 0)
(0.651891 -0.085591 0)
(0.650147 -0.0677968 0)
(0.650143 -0.0500421 0)
(0.65187 -0.0325711 0)
(0.655281 -0.0156408 0)
(0.660298 0.000489231 0)
(0.666801 0.0155045 0)
(0.674733 0.0291297 0)
(0.683872 0.0409688 0)
(0.694515 0.0506139 0)
(0.707003 0.05789 0)
(0.721939 0.0623829 0)
(0.674031 -0.229266 0)
(0.658764 -0.214328 0)
(0.64451 -0.197485 0)
(0.631756 -0.179045 0)
(0.620772 -0.159146 0)
(0.611826 -0.138033 0)
(0.605047 -0.115978 0)
(0.600597 -0.0932849 0)
(0.598543 -0.0702591 0)
(0.598936 -0.0472234 0)
(0.601783 -0.0245022 0)
(0.607056 -0.00241647 0)
(0.614679 0.0186925 0)
(0.62457 0.0385866 0)
(0.636391 0.0569306 0)
(0.650184 0.073695 0)
(0.664928 0.088943 0)
(0.679807 0.102492 0)
(0.693839 0.114925 0)
(0.641492 -0.270936 0)
(0.620108 -0.253637 0)
(0.600608 -0.233512 0)
(0.583306 -0.210769 0)
(0.568563 -0.185805 0)
(0.556562 -0.159088 0)
(0.547619 -0.131038 0)
(0.541797 -0.102066 0)
(0.539221 -0.0725988 0)
(0.539935 -0.0430369 0)
(0.543965 -0.0137933 0)
(0.5513 0.0146902 0)
(0.561911 0.0419995 0)
(0.575593 0.0674994 0)
(0.592515 0.0908214 0)
(0.611657 0.110991 0)
(0.633936 0.127122 0)
(0.659035 0.138748 0)
(0.686961 0.143571 0)
(0.604814 -0.323612 0)