/*--------------------------------*- C++ -*----------------------------------*\
  =========                 |
  \\      /  F ield         | OpenFOAM: The Open Source CFD Toolbox
   \\    /   O peration     | Website:  https://openfoam.org
    \\  /    A nd           | Version:  10
     \\/     M anipulation  |
\*---------------------------------------------------------------------------*/
FoamFile
{
    format      ascii;
    class       volVectorField;
    location    "0";
    object      U;
}
// * * * * * * * * * * * * * * * * * * * * * * * * * * * * * * * * * * * * * //

dimensions      [0 1 -1 0 0 0 0];

internalField   nonuniform List<vector> 
18483
(
(0.999999 -0.000250395 0)
(0.999998 -0.000894653 0)
(0.999996 -0.00142298 0)
(0.999994 -0.0019889 0)
(0.99999 -0.00252622 0)
(0.999987 -0.00304528 0)
(0.999983 -0.00352597 0)
(0.999979 -0.00395485 0)
(0.999975 -0.0043208 0)
(0.999968 -0.00461969 0)
(0.999956 -0.00485968 0)
(0.999935 -0.00506197 0)
(0.999904 -0.00525867 0)
(0.999864 -0.00548988 0)
(0.999815 -0.00579487 0)
(0.999749 -0.0061934 0)
(0.999609 -0.00664952 0)
(0.999167 -0.00707715 0)
(0.997784 -0.00737266 0)
(0.994574 -0.00742179 0)
(0.98975 -0.00721168 0)
(0.985721 -0.00685586 0)
(0.984983 -0.0064445 0)
(0.987292 -0.00600516 0)
(0.990639 -0.00557641 0)
(0.993573 -0.00520724 0)
(0.995675 -0.00491264 0)
(0.997042 -0.00468576 0)
(0.997886 -0.00451327 0)
(1.00076 -0.000729096 0)
(1.00079 -0.00259471 0)
(1.00087 -0.00413919 0)
(1.00094 -0.00581673 0)
(1.00102 -0.00742853 0)
(1.00107 -0.00901143 0)
(1.00109 -0.0105039 0)
(1.00107 -0.0118661 0)
(1.00101 -0.0130581 0)
(1.00091 -0.0140539 0)
(1.0008 -0.0148335 0)
(1.00071 -0.015391 0)
(1.00068 -0.01571 0)
(1.00074 -0.0157385 0)
(1.0009 -0.0154158 0)
(1.0011 -0.0147173 0)
(1.00131 -0.0137248 0)
(1.0016 -0.0126362 0)
(1.00237 -0.0117239 0)
(1.00443 -0.0112929 0)
(1.00788 -0.0114493 0)
(1.01079 -0.0119544 0)
(1.01066 -0.0124943 0)
(1.00772 -0.0129416 0)
(1.00419 -0.0132673 0)
(1.0015 -0.013446 0)
(0.99983 -0.0135 0)
(0.9989 -0.0134699 0)
(0.998411 -0.0133905 0)
(1.00218 -0.00114612 0)
(1.00229 -0.00405836 0)
(1.00251 -0.00648638 0)
(1.00275 -0.00915357 0)
(1.00299 -0.0117378 0)
(1.00317 -0.0143131 0)
(1.00327 -0.0167762 0)
(1.00325 -0.0190594 0)
(1.0031 -0.0210794 0)
(1.00282 -0.0227697 0)
(1.00243 -0.024079 0)
(1.00194 -0.024987 0)
(1.00137 -0.0255194 0)
(1.00073 -0.0257534 0)
(0.999982 -0.0258412 0)
(0.999131 -0.0259446 0)
(0.998202 -0.0261158 0)
(0.997214 -0.0262529 0)
(0.996022 -0.0261836 0)
(0.994164 -0.0257941 0)
(0.991324 -0.0250985 0)
(0.988496 -0.0242727 0)
(0.987563 -0.0235362 0)
(0.988768 -0.0228743 0)
(0.990574 -0.0221926 0)
(0.991927 -0.0215339 0)
(0.992735 -0.0209369 0)
(0.993184 -0.0204094 0)
(0.993433 -0.0199518 0)
(1.00389 -0.00150381 0)
(1.00409 -0.00530063 0)
(1.00449 -0.00848104 0)
(1.00493 -0.012006 0)
(1.00539 -0.0154456 0)
(1.00576 -0.0189159 0)
(1.00598 -0.0222808 0)
(1.00598 -0.0254546 0)
(1.00572 -0.0283245 0)
(1.00519 -0.0308081 0)
(1.00438 -0.0328534 0)
(1.00333 -0.0344388 0)
(1.00211 -0.035586 0)
(1.00081 -0.0363345 0)
(0.999509 -0.0366635 0)
(0.998281 -0.0364739 0)
(0.997165 -0.0357192 0)
(0.996298 -0.0345228 0)
(0.996217 -0.0331554 0)
(0.99792 -0.0318661 0)
(1.00171 -0.0307615 0)
(1.00547 -0.0298997 0)
(1.00597 -0.0292049 0)
(1.00286 -0.0286588 0)
(0.99871 -0.028339 0)
(0.995392 -0.02813 0)
(0.993151 -0.0279246 0)
(0.991693 -0.0276973 0)
(0.990734 -0.027448 0)
(1.00567 -0.00181029 0)
(1.00599 -0.00635465 0)
(1.00658 -0.0101714 0)
(1.00727 -0.0144273 0)
(1.008 -0.0186031 0)
(1.00861 -0.0228627 0)
(1.00902 -0.0270497 0)
(1.00912 -0.0310729 0)
(1.00883 -0.034795 0)
(1.00814 -0.0381017 0)
(1.00707 -0.040891 0)
(1.00571 -0.0430776 0)
(1.00415 -0.0446279 0)
(1.00249 -0.0455661 0)
(1.00075 -0.0459894 0)
(0.99895 -0.0461246 0)
(0.997066 -0.0462473 0)
(0.995104 -0.046481 0)
(0.992854 -0.0466564 0)
(0.989664 -0.0464625 0)
(0.985103 -0.0457686 0)
(0.980589 -0.0446324 0)
(0.978938 -0.0433064 0)
(0.980586 -0.0419586 0)
(0.982971 -0.0405407 0)
(0.984373 -0.0391667 0)
(0.984877 -0.0379581 0)
(0.984914 -0.0369288 0)
(0.98475 -0.0360664 0)
(1.00751 -0.00206807 0)
(1.00796 -0.00723085 0)
(1.00876 -0.0115723 0)
(1.00973 -0.0164319 0)
(1.01077 -0.0212197 0)
(1.01169 -0.0261524 0)
(1.01237 -0.031063 0)
(1.01266 -0.0358605 0)
(1.01245 -0.0403801 0)
(1.0117 -0.0444671 0)
(1.01042 -0.0479819 0)
(1.00864 -0.0508299 0)
(1.00643 -0.0529979 0)
(1.00388 -0.0545394 0)
(1.00112 -0.0555171 0)
(0.998313 -0.0559115 0)
(0.995626 -0.0555735 0)
(0.993198 -0.0544205 0)
(0.991383 -0.0527005 0)
(0.991195 -0.0508664 0)
(0.993574 -0.0492447 0)
(0.996928 -0.0479519 0)
(0.99719 -0.0468471 0)
(0.993083 -0.0458708 0)
(0.987812 -0.0451764 0)
(0.983926 -0.0446595 0)
(0.981422 -0.0441542 0)
(0.979751 -0.043634 0)
(0.978578 -0.0431039 0)
(1.00937 -0.00227658 0)
(1.00996 -0.00792959 0)
(1.01098 -0.0126849 0)
(1.01224 -0.0180211 0)
(1.01362 -0.0232941 0)
(1.01491 -0.0287775 0)
(1.01592 -0.0343027 0)
(1.01648 -0.039792 0)
(1.01642 -0.0450731 0)
(1.01564 -0.0499832 0)
(1.0141 -0.0543744 0)
(1.01184 -0.0581365 0)
(1.00898 -0.0611868 0)
(1.00574 -0.06344 0)
(1.00232 -0.0648491 0)
(0.998868 -0.0654794 0)
(0.995408 -0.0656349 0)
(0.99191 -0.0657831 0)
(0.988245 -0.0660389 0)
(0.983713 -0.0660543 0)
(0.977334 -0.0654926 0)
(0.970258 -0.064262 0)
(0.966537 -0.0626754 0)
(0.96784 -0.0609794 0)
(0.970598 -0.0590679 0)
(0.971885 -0.0570967 0)
(0.971978 -0.0553168 0)
(0.971603 -0.0537727 0)
(0.971069 -0.0524603 0)
(1.01123 -0.00243745 0)
(1.01195 -0.00845912 0)
(1.01319 -0.0135239 0)
(1.01474 -0.019217 0)
(1.01647 -0.024856 0)
(1.01815 -0.0307723 0)
(1.01954 -0.0368084 0)
(1.02043 -0.0429155 0)
(1.02061 -0.0489327 0)
(1.01993 -0.0546945 0)
(1.01834 -0.0600119 0)
(1.01589 -0.0646928 0)
(1.01273 -0.0685599 0)
(1.00903 -0.0714915 0)
(1.00489 -0.0734965 0)
(1.00041 -0.0746717 0)
(0.995758 -0.0750374 0)
(0.991245 -0.0743625 0)
(0.987378 -0.0725376 0)
(0.985145 -0.0700413 0)
(0.985871 -0.0676079 0)
(0.988653 -0.0657342 0)
(0.988628 -0.0643044 0)
(0.98292 -0.0630177 0)
(0.975426 -0.0620713 0)
(0.970173 -0.0614056 0)
(0.966919 -0.0607162 0)
(0.964657 -0.0599743 0)
(0.962985 -0.0592033 0)
(1.01303 -0.00255609 0)
(1.01387 -0.00884005 0)
(1.01531 -0.0141233 0)
(1.01715 -0.0200699 0)
(1.01924 -0.0259711 0)
(1.02132 -0.0322157 0)
(1.02315 -0.0386658 0)
(1.02445 -0.0453101 0)
(1.025 -0.0520034 0)
(1.0246 -0.0585767 0)
(1.02315 -0.0648085 0)
(1.02064 -0.0704727 0)
(1.01711 -0.0753877 0)
(1.01267 -0.079448 0)
(1.00748 -0.0826176 0)
(1.00183 -0.0848467 0)
(0.995994 -0.0861843 0)
(0.990151 -0.0869805 0)
(0.984219 -0.0877043 0)
(0.977649 -0.088323 0)
(0.969312 -0.0882135 0)
(0.959692 -0.0869112 0)
(0.953308 -0.0847784 0)
(0.953583 -0.0825041 0)
(0.956541 -0.0800247 0)
(0.957422 -0.0773273 0)
(0.956654 -0.0748561 0)
(0.95551 -0.0727039 0)
(0.954299 -0.0708484 0)
(1.01473 -0.00264056 0)
(1.01569 -0.0091013 0)
(1.01733 -0.0145305 0)
(1.01944 -0.0206478 0)
(1.02187 -0.0267268 0)
(1.02436 -0.0332106 0)
(1.02665 -0.039985 0)
(1.02844 -0.0470805 0)
(1.02947 -0.0543801 0)
(1.02946 -0.0617374 0)
(1.02824 -0.0689434 0)
(1.02571 -0.0757724 0)
(1.02188 -0.0819987 0)
(1.01693 -0.0873903 0)
(1.01114 -0.0917342 0)
(1.00477 -0.0948576 0)
(0.998057 -0.0967133 0)
(0.991203 -0.0972116 0)
(0.984651 -0.0961084 0)
(0.979421 -0.0935627 0)
(0.977299 -0.090492 0)
(0.978632 -0.08801 0)
(0.978587 -0.0864063 0)
(0.971828 -0.084949 0)
(0.961696 -0.083591 0)
(0.954458 -0.0826608 0)
(0.950128 -0.0817115 0)
(0.946932 -0.0806238 0)
(0.944456 -0.0794955 0)
(1.01631 -0.00269935 0)
(1.01737 -0.00927328 0)
(1.01918 -0.0147944 0)
(1.02155 -0.0210207 0)
(1.02432 -0.0272119 0)
(1.02722 -0.0338617 0)
(1.02999 -0.0408817 0)
(1.03231 -0.0483501 0)
(1.03388 -0.0561938 0)
(1.03438 -0.0643103 0)
(1.03356 -0.0725119 0)
(1.03129 -0.0805495 0)
(1.02757 -0.0881155 0)
(1.02251 -0.0948777 0)
(1.01627 -0.100593 0)
(1.00902 -0.105131 0)
(1.00095 -0.108495 0)
(0.992357 -0.110875 0)
(0.983481 -0.112792 0)
(0.974248 -0.114671 0)
(0.963722 -0.116005 0)
(0.951349 -0.115688 0)
(0.940961 -0.113407 0)
(0.938227 -0.110413 0)
(0.940619 -0.107358 0)
(0.94095 -0.103864 0)
(0.938872 -0.100488 0)
(0.93659 -0.0975835 0)
(0.934391 -0.0950483 0)
(1.01775 -0.00273996 0)
(1.01891 -0.00938253 0)
(1.02088 -0.0149579 0)
(1.02348 -0.0212485 0)
(1.02657 -0.0275026 0)
(1.02987 -0.03426 0)
(1.03312 -0.0414589 0)
(1.03601 -0.0492266 0)
(1.0382 -0.0575402 0)
(1.03934 -0.066344 0)
(1.03915 -0.0754738 0)
(1.03743 -0.0846778 0)
(1.03404 -0.0936386 0)
(1.02896 -0.102015 0)
(1.02225 -0.109515 0)
(1.01415 -0.115862 0)
(1.00504 -0.120769 0)
(0.995361 -0.123907 0)
(0.985716 -0.124855 0)
(0.977042 -0.123435 0)
(0.970961 -0.120359 0)
(0.969013 -0.117262 0)
(0.968159 -0.115531 0)
(0.960923 -0.114411 0)
(0.947772 -0.112814 0)
(0.937258 -0.111518 0)
(0.931216 -0.110328 0)
(0.926653 -0.108768 0)
(0.922987 -0.107112 0)
(1.01907 -0.00276833 0)
(1.02031 -0.00944972 0)
(1.02243 -0.0150537 0)
(1.02524 -0.0213777 0)
(1.02862 -0.0276581 0)
(1.03231 -0.0344767 0)
(1.03604 -0.0417955 0)
(1.03951 -0.0497878 0)
(1.04238 -0.0584799 0)
(1.04429 -0.0678695 0)
(1.04487 -0.0778417 0)
(1.04382 -0.0881891 0)
(1.04091 -0.0986229 0)
(1.03602 -0.108768 0)
(1.02921 -0.118193 0)
(1.02071 -0.126451 0)
(1.01078 -0.133205 0)
(0.999715 -0.138366 0)
(0.987835 -0.142362 0)
(0.975436 -0.1461 0)
(0.962184 -0.149695 0)
(0.946992 -0.151621 0)
(0.931709 -0.150237 0)
(0.923246 -0.146579 0)
(0.923163 -0.142798 0)
(0.922832 -0.13863 0)
(0.918957 -0.134143 0)
(0.914906 -0.130313 0)
(0.911306 -0.126976 0)
(1.02026 -0.00278882 0)
(1.02157 -0.00948989 0)
(1.02383 -0.015106 0)
(1.02684 -0.0214422 0)
(1.03048 -0.0277218 0)
(1.03453 -0.0345643 0)
(1.03873 -0.0419506 0)
(1.04279 -0.0500943 0)
(1.04636 -0.0590726 0)
(1.04907 -0.0689465 0)
(1.0505 -0.0796701 0)
(1.05028 -0.0910941 0)
(1.04812 -0.102949 0)
(1.04383 -0.114827 0)
(1.03735 -0.12624 0)
(1.02871 -0.136701 0)
(1.01806 -0.145824 0)
(1.00582 -0.153221 0)
(0.992775 -0.15825 0)
(0.980134 -0.160066 0)
(0.969352 -0.158544 0)
(0.96232 -0.155266 0)
(0.958691 -0.153023 0)
(0.951202 -0.152553 0)
(0.935369 -0.1514 0)
(0.91974 -0.149587 0)
(0.910577 -0.148103 0)
(0.904035 -0.145972 0)
(0.898518 -0.143479 0)
(1.02134 -0.00280441 0)
(1.02272 -0.00951333 0)
(1.02509 -0.015131 0)
(1.02827 -0.0214655 0)
(1.03217 -0.0277244 0)
(1.03655 -0.0345609 0)
(1.04119 -0.0419698 0)
(1.04581 -0.0501997 0)
(1.05008 -0.0593784 0)
(1.05361 -0.0696313 0)
(1.05597 -0.0809818 0)
(1.05677 -0.0933395 0)
(1.05563 -0.106476 0)
(1.05225 -0.120023 0)
(1.04635 -0.133513 0)
(1.03783 -0.146397 0)
(1.02683 -0.158101 0)
(1.01376 -0.168072 0)
(0.999142 -0.176021 0)
(0.983404 -0.182682 0)
(0.96658 -0.189228 0)
(0.948006 -0.194862 0)
(0.927618 -0.196615 0)
(0.910998 -0.193299 0)
(0.904824 -0.188295 0)
(0.903081 -0.183445 0)
(0.897225 -0.17769 0)
(0.890301 -0.172415 0)
(0.884614 -0.16798 0)
(1.02232 -0.00281702 0)
(1.02375 -0.00952669 0)
(1.02623 -0.0151397 0)
(1.02956 -0.0214629 0)
(1.03368 -0.0276866 0)
(1.03837 -0.0344941 0)
(1.04341 -0.0418886 0)
(1.04856 -0.0501481 0)
(1.05351 -0.0594457 0)
(1.05788 -0.0699649 0)
(1.06125 -0.0817948 0)
(1.06318 -0.09492 0)
(1.06322 -0.109192 0)
(1.06092 -0.12432 0)
(1.0559 -0.13986 0)
(1.04795 -0.155199 0)
(1.03708 -0.169675 0)
(1.02352 -0.182706 0)
(1.00782 -0.193626 0)
(0.991091 -0.201365 0)
(0.975063 -0.204564 0)
(0.961536 -0.203216 0)
(0.952061 -0.200458 0)
(0.942926 -0.200297 0)
(0.925479 -0.200822 0)
(0.903267 -0.19888 0)
(0.888007 -0.196688 0)
(0.878326 -0.193968 0)
(0.869856 -0.19013 0)
(1.0232 -0.00282785 0)
(1.02468 -0.00953409 0)
(1.02726 -0.0151386 0)
(1.03073 -0.0214443 0)
(1.03505 -0.0276227 0)
(1.04 -0.034384 0)
(1.04542 -0.0417339 0)
(1.05106 -0.0499738 0)
(1.05666 -0.0593145 0)
(1.06186 -0.0699911 0)
(1.06625 -0.0821602 0)
(1.06935 -0.0958935 0)
(1.07065 -0.111136 0)
(1.06964 -0.12767 0)
(1.06587 -0.145099 0)
(1.05894 -0.162829 0)
(1.04865 -0.180176 0)
(1.0351 -0.19645 0)
(1.01876 -0.210838 0)
(1.00019 -0.222866 0)
(0.979606 -0.233635 0)
(0.956709 -0.24429 0)
(0.931011 -0.252179 0)
(0.905009 -0.252464 0)
(0.887784 -0.246676 0)
(0.881283 -0.240691 0)
(0.873468 -0.234081 0)
(0.86214 -0.22661 0)
(0.852824 -0.220414 0)
(1.02401 -0.00283757 0)
(1.02552 -0.00953807 0)
(1.02819 -0.015132 0)
(1.03177 -0.0214161 0)
(1.03627 -0.0275427 0)
(1.04147 -0.0342454 0)
(1.04722 -0.0415264 0)
(1.05333 -0.0497059 0)
(1.05954 -0.059025 0)
(1.06553 -0.0697656 0)
(1.07089 -0.0821495 0)
(1.07516 -0.0963318 0)
(1.07781 -0.112345 0)
(1.07828 -0.130056 0)
(1.07602 -0.149162 0)
(1.07046 -0.169154 0)
(1.06119 -0.189353 0)
(1.04817 -0.20903 0)
(1.03169 -0.227364 0)
(1.01228 -0.243209 0)
(0.991213 -0.254777 0)
(0.970681 -0.259981 0)
(0.952899 -0.259364 0)
(0.938333 -0.258858 0)
(0.919313 -0.261971 0)
(0.890702 -0.262399 0)
(0.864679 -0.259231 0)
(0.848653 -0.255835 0)
(0.835547 -0.250395 0)
(1.02474 -0.00284656 0)
(1.02629 -0.00954012 0)
(1.02903 -0.0151226 0)
(1.03272 -0.0213825 0)
(1.03738 -0.0274534 0)
(1.04279 -0.0340893 0)
(1.04884 -0.0412829 0)
(1.05536 -0.0493705 0)
(1.06213 -0.0586173 0)
(1.06885 -0.0693446 0)
(1.07515 -0.081831 0)
(1.08058 -0.0963045 0)
(1.08462 -0.112886 0)
(1.08667 -0.13154 0)
(1.08607 -0.152084 0)
(1.08215 -0.174121 0)
(1.07437 -0.197018 0)
(1.06247 -0.220046 0)
(1.04655 -0.242339 0)
(1.02687 -0.262691 0)
(1.00359 -0.280543 0)
(0.976491 -0.297501 0)
(0.94529 -0.314001 0)
(0.910402 -0.324189 0)
(0.87813 -0.322202 0)
(0.859247 -0.314527 0)
(0.847641 -0.307611 0)
(0.83083 -0.298263 0)
(0.814548 -0.289051 0)
(1.02541 -0.00285496 0)
(1.02699 -0.0095411 0)
(1.0298 -0.0151121 0)
(1.03357 -0.0213463 0)
(1.03838 -0.0273598 0)
(1.04397 -0.0339238 0)
(1.05028 -0.0410173 0)
(1.05718 -0.0489906 0)
(1.06445 -0.0581265 0)
(1.07185 -0.068777 0)
(1.07903 -0.0812675 0)
(1.08559 -0.0958908 0)
(1.09101 -0.112856 0)
(1.09465 -0.132235 0)
(1.09581 -0.153955 0)
(1.09377 -0.177743 0)
(1.08786 -0.203075 0)
(1.07761 -0.229279 0)
(1.06288 -0.255581 0)
(1.04363 -0.280857 0)
(1.02005 -0.303414 0)
(0.993648 -0.320465 0)
(0.967048 -0.328722 0)
(0.942608 -0.330315 0)
(0.919063 -0.335263 0)
(0.886253 -0.34243 0)
(0.846038 -0.341361 0)
(0.816105 -0.336772 0)
(0.795274 -0.33048 0)
(1.02602 -0.00286284 0)
(1.02763 -0.00954142 0)
(1.0305 -0.0151015 0)
(1.03434 -0.0213093 0)
(1.03927 -0.027265 0)
(1.04503 -0.033755 0)
(1.05157 -0.0407405 0)
(1.0588 -0.0485845 0)
(1.06653 -0.0575808 0)
(1.07455 -0.0681042 0)
(1.08256 -0.0805191 0)
(1.09018 -0.0951762 0)
(1.09691 -0.112368 0)
(1.10212 -0.13226 0)
(1.1051 -0.154883 0)
(1.1051 -0.180101 0)
(1.10134 -0.207544 0)
(1.09317 -0.236639 0)
(1.08025 -0.266713 0)
(1.06235 -0.296683 0)
(1.03911 -0.324951 0)
(1.01007 -0.351204 0)
(0.974676 -0.377808 0)
(0.932638 -0.403336 0)
(0.885667 -0.415963 0)
(0.845327 -0.411143 0)
(0.821251 -0.403253 0)
(0.798632 -0.394907 0)
(0.770967 -0.381878 0)
(1.02657 -0.0028702 0)
(1.0282 -0.00954135 0)
(1.03112 -0.0150911 0)
(1.03503 -0.0212725 0)
(1.04008 -0.0271717 0)
(1.04597 -0.0335874 0)
(1.05272 -0.040461 0)
(1.06024 -0.0481667 0)
(1.06838 -0.0570036 0)
(1.07696 -0.0673632 0)
(1.08573 -0.0796431 0)
(1.09433 -0.0942425 0)
(1.1023 -0.111523 0)
(1.10904 -0.131738 0)
(1.11383 -0.155013 0)
(1.11592 -0.181347 0)
(1.11447 -0.21054 0)
(1.10872 -0.242151 0)
(1.09815 -0.275625 0)
(1.0823 -0.310162 0)
(1.06041 -0.34441 0)
(1.03226 -0.376229 0)
(0.999778 -0.401371 0)
(0.965527 -0.414713 0)
(0.931734 -0.42168 0)
(0.894417 -0.436875 0)
(0.842473 -0.448513 0)
(0.788148 -0.444747 0)
(0.750557 -0.438244 0)
(1.02706 -0.00287706 0)
(1.02871 -0.00954104 0)
(1.03168 -0.0150814 0)
(1.03564 -0.0212369 0)
(1.04079 -0.0270815 0)
(1.0468 -0.0334244 0)
(1.05374 -0.0401855 0)
(1.06151 -0.0477488 0)
(1.07002 -0.0564142 0)
(1.07911 -0.0665859 0)
(1.08856 -0.0786881 0)
(1.09806 -0.0931589 0)
(1.10718 -0.110416 0)
(1.11538 -0.13079 0)
(1.12193 -0.154499 0)
(1.12607 -0.181657 0)
(1.127 -0.212225 0)
(1.12392 -0.245924 0)
(1.1161 -0.282345 0)
(1.10294 -0.320929 0)
(1.08358 -0.360524 0)
(1.05687 -0.399397 0)
(1.02147 -0.43779 0)
(0.976389 -0.479404 0)
(0.920831 -0.519697 0)
(0.856951 -0.536539 0)
(0.803389 -0.529293 0)
(0.767484 -0.523215 0)
(0.727035 -0.510976 0)
(1.0275 -0.00288342 0)
(1.02918 -0.0095406 0)
(1.03218 -0.0150724 0)
(1.03619 -0.021203 0)
(1.04143 -0.0269959 0)
(1.04753 -0.0332684 0)
(1.05464 -0.0399188 0)
(1.06263 -0.0473401 0)
(1.07146 -0.055829 0)
(1.08099 -0.065799 0)
(1.09106 -0.077694 0)
(1.10138 -0.0919836 0)
(1.11157 -0.10913 0)
(1.12112 -0.129534 0)
(1.12934 -0.153493 0)
(1.13548 -0.181216 0)
(1.13878 -0.212805 0)
(1.13844 -0.248156 0)
(1.13366 -0.287023 0)
(1.12367 -0.329051 0)
(1.10749 -0.373589 0)
(1.08369 -0.419515 0)
(1.05142 -0.464319 0)
(1.01246 -0.501493 0)
(0.968561 -0.523322 0)
(0.921635 -0.542068 0)
(0.863791 -0.57609 0)
(0.783258 -0.591987 0)
(0.707338 -0.583562 0)
(1.0279 -0.00288928 0)
(1.02959 -0.00954012 0)
(1.03263 -0.0150643 0)
(1.03668 -0.0211711 0)
(1.04199 -0.0269156 0)
(1.04818 -0.0331211 0)
(1.05543 -0.0396649 0)
(1.06361 -0.0469479 0)
(1.07271 -0.0552604 0)
(1.08265 -0.0650226 0)
(1.09326 -0.0766924 0)
(1.10432 -0.0907645 0)
(1.11548 -0.107738 0)
(1.12628 -0.128068 0)
(1.13606 -0.152126 0)
(1.1441 -0.180197 0)
(1.14969 -0.212495 0)
(1.15208 -0.249074 0)
(1.15047 -0.289874 0)
(1.14397 -0.33474 0)
(1.13152 -0.383325 0)
(1.11195 -0.434961 0)
(1.08312 -0.488245 0)
(1.04142 -0.544082 0)
(0.985856 -0.609984 0)
(0.914136 -0.677104 0)
(0.823512 -0.702292 0)
(0.742712 -0.693893 0)
(0.683034 -0.690258 0)
(1.02825 -0.00289463 0)
(1.02995 -0.00953965 0)
(1.03303 -0.0150569 0)
(1.03711 -0.0211414 0)
(1.04248 -0.0268413 0)
(1.04875 -0.0329836 0)
(1.05612 -0.0394264 0)
(1.06446 -0.0465772 0)
(1.07381 -0.0547174 0)
(1.08409 -0.0642726 0)
(1.09518 -0.0757091 0)
(1.10691 -0.0895419 0)
(1.11895 -0.106299 0)
(1.13087 -0.126481 0)
(1.14209 -0.150517 0)
(1.15191 -0.17876 0)
(1.15968 -0.211512 0)
(1.16467 -0.248949 0)
(1.1662 -0.291178 0)
(1.16341 -0.338273 0)
(1.15506 -0.390089 0)
(1.14002 -0.446571 0)
(1.11667 -0.507874 0)
(1.08246 -0.571425 0)
(1.03744 -0.62693 0)
(0.982029 -0.66216 0)
(0.917575 -0.706642 0)
(0.82527 -0.780258 0)
(0.689591 -0.795094 0)
(1.02856 -0.00289948 0)
(1.03028 -0.00953923 0)
(1.03338 -0.0150504 0)
(1.03749 -0.0211142 0)
(1.04292 -0.026773 0)
(1.04924 -0.0328566 0)
(1.05672 -0.0392049 0)
(1.06521 -0.0462311 0)
(1.07477 -0.0542064 0)
(1.08534 -0.0635599 0)
(1.09686 -0.0747632 0)
(1.10917 -0.0883463 0)
(1.12199 -0.104861 0)
(1.13493 -0.124842 0)
(1.14746 -0.148766 0)
(1.15892 -0.177041 0)
(1.1687 -0.21004 0)
(1.17616 -0.24803 0)
(1.18067 -0.29123 0)
(1.18157 -0.339946 0)
(1.17762 -0.3943 0)
(1.16744 -0.454355 0)
(1.15052 -0.520945 0)
(1.12363 -0.594034 0)
(1.07702 -0.67441 0)
(1.01144 -0.779451 0)
(0.927659 -0.904399 0)
(0.786797 -0.957305 0)
(0.623097 -0.943 0)
(1.02884 -0.00290384 0)
(1.03057 -0.00953888 0)
(1.03369 -0.0150445 0)
(1.03783 -0.0210894 0)
(1.0433 -0.0267109 0)
(1.04968 -0.0327403 0)
(1.05724 -0.0390014 0)
(1.06585 -0.0459116 0)
(1.0756 -0.0537315 0)
(1.08643 -0.0628927 0)
(1.09832 -0.073869 0)
(1.11114 -0.0872017 0)
(1.12466 -0.103461 0)
(1.13851 -0.123207 0)
(1.1522 -0.146957 0)
(1.16515 -0.175162 0)
(1.17678 -0.208247 0)
(1.18653 -0.246551 0)
(1.19381 -0.290361 0)
(1.19815 -0.340128 0)
(1.19867 -0.39632 0)
(1.19373 -0.459068 0)
(1.1826 -0.529393 0)
(1.16457 -0.610807 0)
(1.13493 -0.702934 0)
(1.08921 -0.785822 0)
(1.02108 -0.840197 0)
(0.933739 -0.951137 0)
(0.758267 -1.1179 0)
(1.02909 -0.00290773 0)
(1.03082 -0.00953861 0)
(1.03396 -0.0150393 0)
(1.03812 -0.021067 0)
(1.04363 -0.0266548 0)
(1.05006 -0.0326348 0)
(1.0577 -0.0388161 0)
(1.06642 -0.0456195 0)
(1.07631 -0.053295 0)
(1.08738 -0.0622757 0)
(1.09959 -0.0730354 0)
(1.11285 -0.0861235 0)
(1.12697 -0.102124 0)
(1.14163 -0.121619 0)
(1.15636 -0.145153 0)
(1.17064 -0.173214 0)
(1.18393 -0.206261 0)
(1.19577 -0.244692 0)
(1.20562 -0.288841 0)
(1.21309 -0.339192 0)
(1.21779 -0.396506 0)
(1.21826 -0.461253 0)
(1.21307 -0.534031 0)
(1.20408 -0.618735 0)
(1.18927 -0.718465 0)
(1.1454 -0.8264 0)
(1.07401 -0.986023 0)
(0.995635 -1.25528 0)
(0.698697 -1.33056 0)
(0.998396 -0.00438027 0)
(0.998715 -0.00426607 0)
(0.998899 -0.00415774 0)
(0.998967 -0.00405348 0)
(0.998927 -0.00395181 0)
(0.998779 -0.00385129 0)
(0.998514 -0.00375085 0)
(0.998114 -0.00364993 0)
(0.997559 -0.00354855 0)
(0.996823 -0.00344743 0)
(0.995889 -0.00334817 0)
(0.994746 -0.00325324 0)
(0.993406 -0.00316589 0)
(0.991901 -0.00308984 0)
(0.990294 -0.0030287 0)
(0.988679 -0.00298525 0)
(0.98717 -0.00296062 0)
(0.985895 -0.00295362 0)
(0.984975 -0.00296039 0)
(0.998165 -0.0132891 0)
(0.998044 -0.0131778 0)
(0.998004 -0.0130592 0)
(0.998031 -0.012938 0)
(0.99812 -0.0128162 0)
(0.998277 -0.012695 0)
(0.998523 -0.0125753 0)
(0.998884 -0.0124566 0)
(0.999397 -0.0123376 0)
(1.0001 -0.0122154 0)
(1.00104 -0.0120855 0)
(1.00225 -0.011942 0)
(1.00371 -0.011777 0)
(1.00542 -0.011582 0)
(1.0073 -0.0113484 0)
(1.00923 -0.0110698 0)
(1.01106 -0.010743 0)
(1.01261 -0.0103702 0)
(1.0137 -0.00995927 0)
(0.993573 -0.0195528 0)
(0.993655 -0.0191713 0)
(0.993694 -0.018774 0)
(0.99369 -0.0183617 0)
(0.993632 -0.0179364 0)
(0.993505 -0.0174997 0)
(0.993281 -0.0170536 0)
(0.992926 -0.0166009 0)
(0.992395 -0.0161452 0)
(0.991637 -0.0156911 0)
(0.990603 -0.0152447 0)
(0.98925 -0.0148136 0)
(0.987561 -0.0144064 0)
(0.985554 -0.0140319 0)
(0.983303 -0.013698 0)
(0.980941 -0.0134096 0)
(0.978654 -0.0131669 0)
(0.976665 -0.0129639 0)
(0.975201 -0.0127884 0)
(0.990079 -0.0271901 0)
(0.989587 -0.026925 0)
(0.989194 -0.0266452 0)
(0.988889 -0.026353 0)
(0.988672 -0.0260482 0)
(0.988555 -0.0257312 0)
(0.988563 -0.0254024 0)
(0.988733 -0.0250619 0)
(0.989115 -0.0247092 0)
(0.989768 -0.0243429 0)
(0.990748 -0.0239602 0)
(0.992104 -0.0235567 0)
(0.99385 -0.0231264 0)
(0.995954 -0.0226624 0)
(0.998316 -0.0221583 0)
(1.00076 -0.02161 0)
(1.00306 -0.021018 0)
(1.00494 -0.0203888 0)
(1.00614 -0.0197354 0)
(0.984518 -0.0353375 0)
(0.984255 -0.0346597 0)
(0.983962 -0.033972 0)
(0.983645 -0.0332735 0)
(0.983301 -0.0325654 0)
(0.982915 -0.031848 0)
(0.982465 -0.0311219 0)
(0.981913 -0.0303884 0)
(0.981208 -0.0296493 0)
(0.980288 -0.0289078 0)
(0.979083 -0.0281681 0)
(0.97753 -0.0274364 0)
(0.975588 -0.0267205 0)
(0.973269 -0.0260289 0)
(0.970653 -0.0253692 0)
(0.967908 -0.0247457 0)
(0.965282 -0.0241574 0)
(0.96307 -0.0235957 0)
(0.961561 -0.0230448 0)
(0.977706 -0.0425833 0)
(0.976986 -0.0420648 0)
(0.976346 -0.0415292 0)
(0.975779 -0.0409787 0)
(0.97529 -0.0404118 0)
(0.974894 -0.0398273 0)
(0.97462 -0.0392241 0)
(0.974508 -0.0386008 0)
(0.974617 -0.037955 0)
(0.975016 -0.0372837 0)
(0.975781 -0.036582 0)
(0.976977 -0.0358434 0)
(0.978636 -0.0350595 0)
(0.980728 -0.0342211 0)
(0.983135 -0.0333201 0)
(0.985639 -0.0323524 0)
(0.987939 -0.0313213 0)
(0.98969 -0.0302397 0)
(0.990577 -0.0291292 0)
(0.970511 -0.0513401 0)
(0.969944 -0.0502906 0)
(0.969349 -0.0492204 0)
(0.968732 -0.0481297 0)
(0.96809 -0.0470206 0)
(0.967411 -0.045894 0)
(0.966671 -0.0447509 0)
(0.965831 -0.0435923 0)
(0.964835 -0.04242 0)
(0.963612 -0.0412368 0)
(0.962076 -0.040047 0)
(0.960147 -0.0388576 0)
(0.957771 -0.0376778 0)
(0.954954 -0.0365185 0)
(0.951803 -0.0353905 0)
(0.948538 -0.0343007 0)
(0.945492 -0.0332483 0)
(0.943051 -0.032222 0)
(0.94157 -0.0312004 0)
(0.961682 -0.0584325 0)
(0.960557 -0.057655 0)
(0.959506 -0.0568408 0)
(0.958524 -0.0559932 0)
(0.957611 -0.0551103 0)
(0.956781 -0.054191 0)
(0.956059 -0.0532347 0)
(0.955489 -0.0522407 0)
(0.955129 -0.0512081 0)
(0.955059 -0.0501349 0)
(0.955369 -0.0490177 0)
(0.956148 -0.0478504 0)
(0.95745 -0.0466236 0)
(0.959258 -0.0453246 0)
(0.961445 -0.0439401 0)
(0.96375 -0.0424594 0)
(0.965799 -0.0408808 0)
(0.967166 -0.0392162 0)
(0.967484 -0.0374922 0)
(0.953147 -0.0692511 0)
(0.952028 -0.0677421 0)
(0.950886 -0.0661935 0)
(0.949729 -0.0646058 0)
(0.948557 -0.0629815 0)
(0.947362 -0.0613217 0)
(0.946125 -0.0596269 0)
(0.944813 -0.0578982 0)
(0.943371 -0.0561368 0)
(0.941724 -0.0543449 0)
(0.939775 -0.0525271 0)
(0.937421 -0.0506914 0)
(0.934578 -0.0488508 0)
(0.931227 -0.0470237 0)
(0.927467 -0.0452321 0)
(0.923556 -0.043497 0)
(0.91991 -0.0418311 0)
(0.917029 -0.0402309 0)
(0.915364 -0.0386741 0)
(0.942461 -0.0783589 0)
(0.940685 -0.0772057 0)
(0.938982 -0.0759882 0)
(0.937341 -0.0747122 0)
(0.935763 -0.0733778 0)
(0.93426 -0.0719862 0)
(0.932854 -0.0705397 0)
(0.931585 -0.0690412 0)
(0.930511 -0.0674938 0)
(0.929717 -0.0659006 0)
(0.929312 -0.0642628 0)
(0.929415 -0.0625786 0)
(0.930125 -0.0608397 0)
(0.931472 -0.0590297 0)
(0.933357 -0.0571237 0)
(0.935504 -0.0550929 0)
(0.93746 -0.0529139 0)
(0.938679 -0.0505811 0)
(0.938676 -0.0481171 0)
(0.932363 -0.0928525 0)
(0.930439 -0.0907678 0)
(0.928508 -0.088621 0)
(0.926584 -0.0864148 0)
(0.924675 -0.0841516 0)
(0.922782 -0.081832 0)
(0.920898 -0.0794563 0)
(0.919001 -0.0770246 0)
(0.91705 -0.0745371 0)
(0.914977 -0.0719944 0)
(0.912679 -0.0693982 0)
(0.910027 -0.0667543 0)
(0.906884 -0.0640754 0)
(0.903156 -0.0613848 0)
(0.898868 -0.058719 0)
(0.894245 -0.0561235 0)
(0.889756 -0.0536423 0)
(0.886051 -0.0513002 0)
(0.883773 -0.0490854 0)
(0.92002 -0.105434 0)
(0.917348 -0.103712 0)
(0.914766 -0.10188 0)
(0.912264 -0.0999496 0)
(0.909842 -0.097928 0)
(0.907509 -0.0958244 0)
(0.905284 -0.0936488 0)
(0.903196 -0.0914117 0)
(0.901297 -0.0891238 0)
(0.89966 -0.0867959 0)
(0.898396 -0.084438 0)
(0.897644 -0.0820565 0)
(0.897556 -0.0796501 0)
(0.898251 -0.0772031 0)
(0.899725 -0.0746794 0)
(0.901764 -0.0720207 0)
(0.90388 -0.0691567 0)
(0.905362 -0.0660306 0)
(0.905479 -0.0626326 0)
(0.908017 -0.124037 0)
(0.904971 -0.12124 0)
(0.901967 -0.11834 0)
(0.899031 -0.115349 0)
(0.896182 -0.112267 0)
(0.893427 -0.109092 0)
(0.890769 -0.105825 0)
(0.888202 -0.102463 0)
(0.8857 -0.0990074 0)
(0.88321 -0.0954554 0)
(0.880639 -0.0918058 0)
(0.877843 -0.0880585 0)
(0.87463 -0.084219 0)
(0.870791 -0.0803071 0)
(0.866186 -0.0763667 0)
(0.860875 -0.0724739 0)
(0.855263 -0.0687305 0)
(0.850145 -0.0652352 0)
(0.846526 -0.0620375 0)
(0.894124 -0.140971 0)
(0.890165 -0.138337 0)
(0.886356 -0.135504 0)
(0.882694 -0.132493 0)
(0.879175 -0.129327 0)
(0.875809 -0.126033 0)
(0.872611 -0.122636 0)
(0.869601 -0.119161 0)
(0.866809 -0.115634 0)
(0.864287 -0.112079 0)
(0.862117 -0.108524 0)
(0.860424 -0.104992 0)
(0.859386 -0.101505 0)
(0.859215 -0.0980718 0)
(0.860085 -0.0946711 0)
(0.861994 -0.0912359 0)
(0.864585 -0.0876427 0)
(0.867045 -0.0837348 0)
(0.868241 -0.079391 0)
(0.879445 -0.16392 0)
(0.87473 -0.160031 0)
(0.870178 -0.155957 0)
(0.865804 -0.151717 0)
(0.861653 -0.147316 0)
(0.857741 -0.142755 0)
(0.85408 -0.138039 0)
(0.850677 -0.133176 0)
(0.84752 -0.128172 0)
(0.844581 -0.123036 0)
(0.841795 -0.117771 0)
(0.839042 -0.112379 0)
(0.836122 -0.106861 0)
(0.832745 -0.101221 0)
(0.828566 -0.0954888 0)
(0.823315 -0.0897415 0)
(0.817048 -0.0841337 0)
(0.810445 -0.0788863 0)
(0.804906 -0.0742172 0)
(0.863115 -0.186248 0)
(0.85715 -0.182091 0)
(0.851433 -0.177524 0)
(0.846042 -0.172632 0)
(0.840955 -0.167443 0)
(0.836202 -0.162026 0)
(0.831803 -0.156429 0)
(0.827772 -0.150707 0)
(0.824129 -0.144917 0)
(0.820896 -0.139113 0)
(0.818111 -0.133355 0)
(0.815841 -0.127705 0)
(0.814218 -0.122229 0)
(0.813459 -0.116988 0)
(0.813876 -0.112031 0)
(0.815786 -0.107355 0)
(0.81927 -0.102855 0)
(0.823786 -0.0982847 0)
(0.827891 -0.0932909 0)
(0.844729 -0.214598 0)
(0.837249 -0.208789 0)
(0.830227 -0.202641 0)
(0.823575 -0.196085 0)
(0.817412 -0.189202 0)
(0.811778 -0.181997 0)
(0.806693 -0.174514 0)
(0.802194 -0.166802 0)
(0.798283 -0.158903 0)
(0.794957 -0.150865 0)
(0.792177 -0.142726 0)
(0.789868 -0.134522 0)
(0.787877 -0.126272 0)
(0.785934 -0.117985 0)
(0.783607 -0.109667 0)
(0.780297 -0.101348 0)
(0.775419 -0.0931567 0)
(0.768889 -0.0853796 0)
(0.761865 -0.0785054 0)
(0.824472 -0.244189 0)
(0.815056 -0.237613 0)
(0.806014 -0.230074 0)
(0.797653 -0.221913 0)
(0.789983 -0.213136 0)
(0.783037 -0.203868 0)
(0.776908 -0.194226 0)
(0.771601 -0.184308 0)
(0.767157 -0.174242 0)
(0.763576 -0.164151 0)
(0.760862 -0.154169 0)
(0.759017 -0.144438 0)
(0.758071 -0.135106 0)
(0.758123 -0.126334 0)
(0.759418 -0.118285 0)
(0.762405 -0.111111 0)
(0.767694 -0.104876 0)
(0.775613 -0.0994659 0)
(0.785318 -0.0943224 0)
(0.801509 -0.280821 0)
(0.789132 -0.271791 0)
(0.777677 -0.262049 0)
(0.767048 -0.251342 0)
(0.757351 -0.239815 0)
(0.748803 -0.227609 0)
(0.741404 -0.214802 0)
(0.735278 -0.201579 0)
(0.730438 -0.18807 0)
(0.726919 -0.174437 0)
(0.724696 -0.16082 0)
(0.723721 -0.147353 0)
(0.723876 -0.134142 0)
(0.724952 -0.121267 0)
(0.726571 -0.108767 0)
(0.72807 -0.0966359 0)
(0.728375 -0.0849404 0)
(0.726213 -0.0738019 0)
(0.720809 -0.063834 0)
(0.776482 -0.320917 0)
(0.760582 -0.310615 0)
(0.745613 -0.298418 0)
(0.731732 -0.284714 0)
(0.719409 -0.269823 0)
(0.708547 -0.253781 0)
(0.699443 -0.236941 0)
(0.692106 -0.219471 0)
(0.686642 -0.20165 0)
(0.683046 -0.183733 0)
(0.681324 -0.165995 0)
(0.68142 -0.148724 0)
(0.683278 -0.132229 0)
(0.686845 -0.116841 0)
(0.692151 -0.102913 0)
(0.699434 -0.0908573 0)
(0.709392 -0.0809528 0)
(0.723005 -0.073637 0)
(0.741746 -0.0686328 0)
(0.748357 -0.37015 0)
(0.727707 -0.356759 0)
(0.70795 -0.341002 0)
(0.690252 -0.323549 0)
(0.674219 -0.304025 0)
(0.660547 -0.283137 0)
(0.649189 -0.26099 0)
(0.640404 -0.237999 0)
(0.634204 -0.214494 0)
(0.630683 -0.190816 0)
(0.629807 -0.16731 0)
(0.631554 -0.144308 0)
(0.635817 -0.12212 0)
(0.642421 -0.101014 0)
(0.651039 -0.0812101 0)
(0.661096 -0.0627042 0)
(0.671296 -0.0457481 0)
(0.680227 -0.0300582 0)
(0.683324 -0.0159516 0)
(0.719791 -0.426166 0)
(0.691497 -0.40966 0)
(0.666257 -0.390725 0)
(0.642681 -0.367972 0)
(0.62229 -0.343065 0)
(0.604841 -0.315915 0)
(0.59081 -0.287186 0)
(0.580169 -0.257362 0)
(0.573121 -0.226854 0)
(0.569594 -0.196147 0)
(0.569655 -0.165674 0)
(0.573232 -0.135901 0)
(0.580264 -0.10733 0)
(0.590635 -0.0805435 0)
(0.604239 -0.0561489 0)
(0.620947 -0.0352117 0)
(0.64168 -0.0180683 0)
(0.665968 -0.00642955 0)
(0.699415 -0.00133827 0)
(0.685606 -0.492334 0)
(0.650888 -0.473653 0)
(0.617026 -0.448149 0)
(0.587335 -0.419526 0)
(0.561361 -0.387249 0)
(0.539855 -0.352311 0)
(0.522698 -0.315624 0)
(0.510217 -0.277553 0)
(0.502138 -0.238816 0)
(0.498661 -0.199827 0)
(0.499655 -0.161072 0)
(0.505195 -0.123029 0)
(0.515283 -0.0862196 0)