/*--------------------------------*- C++ -*----------------------------------*\
  =========                 |
  \\      /  F ield         | OpenFOAM: The Open Source CFD Toolbox
   \\    /   O peration     | Website:  https://openfoam.org
    \\  /    A nd           | Version:  10
     \\/     M anipulation  |
\*---------------------------------------------------------------------------*/
FoamFile
{
    format      ascii;
    class       volVectorField;
    location    "0";
    object      U;
}
// * * * * * * * * * * * * * * * * * * * * * * * * * * * * * * * * * * * * * //

dimensions      [0 1 -1 0 0 0 0];

internalField   nonuniform List<vector> 
18483
(
(1 -0.000207361 0)
(1 -0.000743211 0)
(0.999999 -0.00118843 0)
(0.999996 -0.00167066 0)
(0.999993 -0.00213345 0)
(0.999989 -0.00258265 0)
(0.999985 -0.0029981 0)
(0.999981 -0.00336551 0)
(0.999977 -0.00367335 0)
(0.999972 -0.0039173 0)
(0.999964 -0.0041051 0)
(0.999955 -0.00425543 0)
(0.999946 -0.00439232 0)
(0.999945 -0.00454753 0)
(0.999959 -0.004755 0)
(0.999983 -0.00503684 0)
(0.999961 -0.00536681 0)
(0.999644 -0.00566858 0)
(0.99832 -0.00586154 0)
(0.994979 -0.00588955 0)
(0.989799 -0.00580238 0)
(0.985378 -0.00569637 0)
(0.984446 -0.00555964 0)
(0.986758 -0.0053302 0)
(0.990166 -0.00502516 0)
(0.993142 -0.00471283 0)
(0.995265 -0.00443506 0)
(0.99664 -0.00420543 0)
(0.997489 -0.00402277 0)
(1.00063 -0.000606216 0)
(1.00066 -0.00216384 0)
(1.00074 -0.00347187 0)
(1.00081 -0.00491221 0)
(1.00088 -0.00631448 0)
(1.00093 -0.00770185 0)
(1.00095 -0.00901331 0)
(1.00092 -0.0102051 0)
(1.00085 -0.0112335 0)
(1.00074 -0.0120678 0)
(1.00061 -0.0126799 0)
(1.00049 -0.0130598 0)
(1.0004 -0.0131979 0)
(1.00037 -0.013049 0)
(1.0004 -0.0125597 0)
(1.00043 -0.0116997 0)
(1.00045 -0.0105323 0)
(1.00062 -0.00925283 0)
(1.00164 -0.00814793 0)
(1.00466 -0.00754271 0)
(1.00971 -0.00751584 0)
(1.01395 -0.00781816 0)
(1.01409 -0.00820563 0)
(1.01053 -0.00859355 0)
(1.00612 -0.00893326 0)
(1.00271 -0.00916218 0)
(1.00055 -0.00927418 0)
(0.999332 -0.00929491 0)
(0.998683 -0.0092543 0)
(1.00185 -0.00097481 0)
(1.00196 -0.00345938 0)
(1.00217 -0.00555855 0)
(1.0024 -0.00789534 0)
(1.00264 -0.0101883 0)
(1.00282 -0.0124918 0)
(1.0029 -0.0147044 0)
(1.00286 -0.0167543 0)
(1.00269 -0.0185566 0)
(1.00237 -0.0200468 0)
(1.00192 -0.0211828 0)
(1.00135 -0.0219559 0)
(1.00068 -0.0224038 0)
(0.999928 -0.0226056 0)
(0.999078 -0.0227045 0)
(0.998126 -0.0228656 0)
(0.997091 -0.0231623 0)
(0.995973 -0.0234808 0)
(0.994573 -0.0235539 0)
(0.992335 -0.0231004 0)
(0.989004 -0.0220158 0)
(0.985969 -0.0205968 0)
(0.985466 -0.0192749 0)
(0.987488 -0.0181391 0)
(0.990002 -0.0171232 0)
(0.991755 -0.0162462 0)
(0.992712 -0.0155103 0)
(0.993165 -0.0148945 0)
(0.993349 -0.0143801 0)
(1.00334 -0.0013133 0)
(1.00355 -0.00463557 0)
(1.00394 -0.00745147 0)
(1.00438 -0.0106104 0)
(1.00483 -0.0137285 0)
(1.00519 -0.0169005 0)
(1.00539 -0.0199933 0)
(1.00537 -0.0229178 0)
(1.00508 -0.0255621 0)
(1.00452 -0.0278453 0)
(1.00369 -0.0297155 0)
(1.00264 -0.0311415 0)
(1.00147 -0.0321259 0)
(1.00026 -0.0327036 0)
(0.99909 -0.0328724 0)
(0.998012 -0.0325514 0)
(0.997058 -0.0316918 0)
(0.996306 -0.0304175 0)
(0.996129 -0.0290166 0)
(0.997428 -0.0277847 0)
(1.00076 -0.0268976 0)
(1.00438 -0.0263142 0)
(1.00501 -0.0257828 0)
(1.00205 -0.0252782 0)
(0.998022 -0.0249404 0)
(0.994839 -0.024698 0)
(0.992727 -0.0244674 0)
(0.991373 -0.024229 0)
(0.990489 -0.0239803 0)
(1.00493 -0.0016153 0)
(1.00525 -0.00567525 0)
(1.00583 -0.00912167 0)
(1.00651 -0.0130076 0)
(1.00723 -0.016862 0)
(1.00783 -0.0208271 0)
(1.00822 -0.0247501 0)
(1.0083 -0.028535 0)
(1.00799 -0.0320419 0)
(1.00728 -0.0351499 0)
(1.0062 -0.0377472 0)
(1.00484 -0.0397459 0)
(1.00327 -0.0411227 0)
(1.00157 -0.041928 0)
(0.999774 -0.0422847 0)
(0.997908 -0.0423898 0)
(0.995981 -0.0424647 0)
(0.993975 -0.0426154 0)
(0.991649 -0.0427004 0)
(0.988337 -0.0424465 0)
(0.983567 -0.0417042 0)
(0.97874 -0.0404841 0)
(0.976854 -0.0390686 0)
(0.978593 -0.0376645 0)
(0.981336 -0.0361819 0)
(0.983133 -0.0347241 0)
(0.983954 -0.0334263 0)
(0.984227 -0.0323105 0)
(0.984236 -0.0313708 0)
(1.00657 -0.00187201 0)
(1.00702 -0.00654964 0)
(1.00782 -0.0105234 0)
(1.00878 -0.0150197 0)
(1.00981 -0.0194978 0)
(1.01073 -0.0241536 0)
(1.01139 -0.0288234 0)
(1.01165 -0.0334112 0)
(1.01142 -0.0377483 0)
(1.01065 -0.0416774 0)
(1.00933 -0.0450604 0)
(1.00749 -0.0478146 0)
(1.0052 -0.0499367 0)
(1.0026 -0.0514542 0)
(0.999847 -0.0523868 0)
(0.997094 -0.0526786 0)
(0.994472 -0.0521892 0)
(0.992078 -0.0508894 0)
(0.990268 -0.0490327 0)
(0.990025 -0.0470652 0)
(0.992261 -0.0453691 0)
(0.995528 -0.0441346 0)
(0.995907 -0.0431901 0)
(0.991947 -0.0423428 0)
(0.98668 -0.0417352 0)
(0.982763 -0.0413001 0)
(0.980277 -0.0408621 0)
(0.978656 -0.0403942 0)
(0.977539 -0.0399037 0)
(1.00827 -0.00207866 0)
(1.00885 -0.00724404 0)
(1.00987 -0.0116342 0)
(1.01113 -0.016615 0)
(1.0125 -0.0215937 0)
(1.01379 -0.0268233 0)
(1.0148 -0.0321397 0)
(1.01534 -0.0374601 0)
(1.01526 -0.0426095 0)
(1.01447 -0.0474226 0)
(1.01291 -0.0517477 0)
(1.01064 -0.0554621 0)
(1.00783 -0.0584547 0)
(1.00468 -0.0606146 0)
(1.00137 -0.0619141 0)
(0.997977 -0.0624702 0)
(0.994496 -0.0626397 0)
(0.990888 -0.0628569 0)
(0.987072 -0.0631577 0)
(0.982442 -0.0631629 0)
(0.97611 -0.0625222 0)
(0.969102 -0.061151 0)
(0.965249 -0.0593883 0)
(0.966413 -0.0575716 0)
(0.969301 -0.0556061 0)
(0.970846 -0.0535769 0)
(0.971144 -0.0517361 0)
(0.970918 -0.050138 0)
(0.970499 -0.0487785 0)
(1.00996 -0.00223716 0)
(1.01068 -0.00776715 0)
(1.01192 -0.0124685 0)
(1.01348 -0.0178145 0)
(1.01522 -0.0231758 0)
(1.0169 -0.0288644 0)
(1.01831 -0.0347276 0)
(1.01921 -0.0407112 0)
(1.0194 -0.0466495 0)
(1.01873 -0.052368 0)
(1.01715 -0.0576632 0)
(1.01472 -0.0623257 0)
(1.01158 -0.0661729 0)
(1.00787 -0.0691024 0)
(1.00368 -0.0711544 0)
(0.999135 -0.0724141 0)
(0.994451 -0.0728585 0)
(0.989912 -0.0722265 0)
(0.985899 -0.0704388 0)
(0.983311 -0.0680013 0)
(0.983601 -0.0655897 0)
(0.986246 -0.0636883 0)
(0.986621 -0.0622304 0)
(0.981456 -0.0609008 0)
(0.974153 -0.0598738 0)
(0.968865 -0.0591463 0)
(0.9656 -0.0584176 0)
(0.963354 -0.057638 0)
(0.961701 -0.0568303 0)
(1.01162 -0.00235445 0)
(1.01246 -0.00814457 0)
(1.01391 -0.0130675 0)
(1.01577 -0.0186768 0)
(1.01788 -0.0243178 0)
(1.01998 -0.0303617 0)
(1.02184 -0.0366755 0)
(1.02319 -0.0432416 0)
(1.02377 -0.0499094 0)
(1.0234 -0.0564997 0)
(1.02196 -0.0627788 0)
(1.01944 -0.0685142 0)
(1.01588 -0.0735218 0)
(1.01139 -0.0776749 0)
(1.00621 -0.0808925 0)
(1.00062 -0.0830676 0)
(0.994909 -0.0842504 0)
(0.989164 -0.0848784 0)
(0.98324 -0.085518 0)
(0.97663 -0.0861677 0)
(0.968256 -0.0861897 0)
(0.958464 -0.0850626 0)
(0.951592 -0.0830209 0)
(0.951392 -0.0807216 0)
(0.954351 -0.0781766 0)
(0.955492 -0.0753819 0)
(0.954909 -0.0727885 0)
(0.953885 -0.0705209 0)
(0.952764 -0.0685617 0)
(1.01319 -0.00243956 0)
(1.01415 -0.00840852 0)
(1.0158 -0.0134828 0)
(1.01794 -0.0192743 0)
(1.02041 -0.0251106 0)
(1.02295 -0.0314193 0)
(1.0253 -0.0380915 0)
(1.02716 -0.0451523 0)
(1.02824 -0.0524791 0)
(1.02829 -0.0599167 0)
(1.02712 -0.0672441 0)
(1.02461 -0.0742197 0)
(1.0208 -0.0805914 0)
(1.01588 -0.0860839 0)
(1.0101 -0.0904664 0)
(1.00371 -0.0935906 0)
(0.996913 -0.0954503 0)
(0.989982 -0.0959877 0)
(0.983405 -0.0949493 0)
(0.978105 -0.0924746 0)
(0.975714 -0.0894592 0)
(0.976741 -0.0869486 0)
(0.976735 -0.0852501 0)
(0.970194 -0.0837245 0)
(0.959964 -0.0823009 0)
(0.952443 -0.0812915 0)
(0.947965 -0.0802699 0)
(0.944702 -0.0791031 0)
(0.942179 -0.0778928 0)
(1.01465 -0.00250113 0)
(1.01572 -0.0085898 0)
(1.01755 -0.0137638 0)
(1.01996 -0.0196762 0)
(1.02278 -0.0256405 0)
(1.02576 -0.032137 0)
(1.02861 -0.0390835 0)
(1.03104 -0.0465533 0)
(1.0327 -0.0544674 0)
(1.0333 -0.0627136 0)
(1.03257 -0.0710897 0)
(1.03036 -0.079326 0)
(1.02668 -0.0870965 0)
(1.02159 -0.094057 0)
(1.01523 -0.0999629 0)
(1.00778 -0.10467 0)
(0.999566 -0.108116 0)
(0.990976 -0.110433 0)
(0.982278 -0.112178 0)
(0.973219 -0.11388 0)
(0.962669 -0.115121 0)
(0.949966 -0.114836 0)
(0.938932 -0.112671 0)
(0.935563 -0.109729 0)
(0.937781 -0.106627 0)
(0.938199 -0.103049 0)
(0.936115 -0.0995565 0)
(0.933792 -0.0965272 0)
(0.931565 -0.0938698 0)
(1.01598 -0.00254629 0)
(1.01715 -0.00871371 0)
(1.01916 -0.013951 0)
(1.02181 -0.0199392 0)
(1.02497 -0.0259787 0)
(1.02837 -0.0325991 0)
(1.03174 -0.0397443 0)
(1.03476 -0.047538 0)
(1.03709 -0.0559516 0)
(1.03838 -0.0649203 0)
(1.03831 -0.0742694 0)
(1.03666 -0.0837351 0)
(1.0333 -0.092993 0)
(1.02816 -0.101688 0)
(1.02133 -0.109486 0)
(1.01308 -0.116058 0)
(1.00384 -0.121091 0)
(0.994079 -0.124289 0)
(0.984377 -0.12529 0)
(0.97563 -0.123903 0)
(0.969431 -0.120797 0)
(0.967367 -0.117583 0)
(0.966483 -0.115649 0)
(0.959157 -0.114349 0)
(0.945587 -0.112665 0)
(0.934537 -0.111289 0)
(0.928164 -0.110009 0)
(0.923374 -0.10835 0)
(0.919519 -0.106585 0)
(1.0172 -0.00258042 0)
(1.01846 -0.0087992 0)
(1.02062 -0.0140748 0)
(1.0235 -0.0201062 0)
(1.02697 -0.0261804 0)
(1.03077 -0.0328712 0)
(1.03466 -0.0401465 0)
(1.0383 -0.0481772 0)
(1.04135 -0.0569865 0)
(1.04342 -0.0665653 0)
(1.04416 -0.0767922 0)
(1.04324 -0.0874515 0)
(1.04041 -0.0982415 0)
(1.03555 -0.108764 0)
(1.02869 -0.118557 0)
(1.02005 -0.127166 0)
(1.00988 -0.134261 0)
(0.998554 -0.139712 0)
(0.986519 -0.143849 0)
(0.974067 -0.14754 0)
(0.960689 -0.151011 0)
(0.945075 -0.152873 0)
(0.929103 -0.151527 0)
(0.920086 -0.147911 0)
(0.919843 -0.144051 0)
(0.919425 -0.139727 0)
(0.915292 -0.135075 0)
(0.910981 -0.131078 0)
(0.907168 -0.127579 0)
(1.01831 -0.00260735 0)
(1.01964 -0.00885963 0)
(1.02194 -0.0141567 0)
(1.02503 -0.0202084 0)
(1.02878 -0.0262859 0)
(1.03297 -0.033003 0)
(1.03735 -0.040347 0)
(1.0416 -0.0485312 0)
(1.04539 -0.0576314 0)
(1.04831 -0.0677034 0)
(1.04995 -0.0786954 0)
(1.04992 -0.0904502 0)
(1.04791 -0.102688 0)
(1.04372 -0.114998 0)
(1.0372 -0.126888 0)
(1.02837 -0.137859 0)
(1.01743 -0.147464 0)
(1.00491 -0.155217 0)
(0.991631 -0.160447 0)
(0.97877 -0.162371 0)
(0.967777 -0.16092 0)
(0.96064 -0.157658 0)
(0.956999 -0.155329 0)
(0.94923 -0.154698 0)
(0.932609 -0.153449 0)
(0.916176 -0.151609 0)
(0.906532 -0.150067 0)
(0.899594 -0.147835 0)
(0.893715 -0.145223 0)
(1.01931 -0.0026296 0)
(1.02072 -0.00890386 0)
(1.02314 -0.0142113 0)
(1.02641 -0.0202671 0)
(1.03043 -0.0263243 0)
(1.03497 -0.0330321 0)
(1.0398 -0.0403924 0)
(1.04465 -0.0486551 0)
(1.04917 -0.0579477 0)
(1.05295 -0.0683917 0)
(1.05558 -0.0800056 0)
(1.05662 -0.0926973 0)
(1.05568 -0.106241 0)
(1.05241 -0.120276 0)
(1.04652 -0.134329 0)
(1.03788 -0.147809 0)
(1.02665 -0.160082 0)
(1.01325 -0.170558 0)
(0.998263 -0.178967 0)
(0.982203 -0.186028 0)
(0.965066 -0.192865 0)
(0.945944 -0.198681 0)
(0.924673 -0.200547 0)
(0.907361 -0.19733 0)
(0.90107 -0.192354 0)
(0.89919 -0.187367 0)
(0.892796 -0.181425 0)
(0.885366 -0.175999 0)
(0.879271 -0.171416 0)
(1.02022 -0.00264875 0)
(1.02168 -0.00893754 0)
(1.02422 -0.0142481 0)
(1.02765 -0.0202966 0)
(1.0319 -0.026316 0)
(1.03676 -0.0329871 0)
(1.04202 -0.0403202 0)
(1.04743 -0.0485967 0)
(1.05265 -0.0579901 0)
(1.05732 -0.0686821 0)
(1.06099 -0.0807614 0)
(1.0632 -0.0942159 0)
(1.06349 -0.108905 0)
(1.06139 -0.124541 0)
(1.05649 -0.140671 0)
(1.04854 -0.156657 0)
(1.03746 -0.171802 0)
(1.02354 -0.185472 0)
(1.00747 -0.196948 0)
(0.990441 -0.205101 0)
(0.974104 -0.20857 0)
(0.960299 -0.207439 0)
(0.950735 -0.204913 0)
(0.941327 -0.204948 0)
(0.922786 -0.205591 0)
(0.899289 -0.203806 0)
(0.883363 -0.201792 0)
(0.873147 -0.199112 0)
(0.864095 -0.195241 0)
(1.02105 -0.00266576 0)
(1.02256 -0.00896417 0)
(1.0252 -0.0142731 0)
(1.02876 -0.0203065 0)
(1.03323 -0.0262758 0)
(1.03837 -0.0328896 0)
(1.04402 -0.0401605 0)
(1.04994 -0.0483957 0)
(1.05585 -0.0578076 0)
(1.06138 -0.0686324 0)
(1.0661 -0.0810288 0)
(1.06953 -0.0950721 0)
(1.07115 -0.110714 0)
(1.07045 -0.127744 0)
(1.06689 -0.14577 0)
(1.06003 -0.164194 0)
(1.04956 -0.182293 0)
(1.03568 -0.199312 0)
(1.01897 -0.214429 0)
(1.00002 -0.227209 0)
(0.978992 -0.238775 0)
(0.955473 -0.25021 0)
(0.928795 -0.258689 0)
(0.901732 -0.259291 0)
(0.88416 -0.253738 0)
(0.877652 -0.247891 0)
(0.869129 -0.241212 0)
(0.856943 -0.233709 0)
(0.847027 -0.227529 0)
(1.0218 -0.00268119 0)
(1.02335 -0.00898592 0)
(1.02608 -0.0142904 0)
(1.02977 -0.0203031 0)
(1.03442 -0.0262143 0)
(1.03981 -0.0327561 0)
(1.04581 -0.0399377 0)
(1.05221 -0.0480872 0)
(1.05875 -0.0574492 0)
(1.06509 -0.0683082 0)
(1.07083 -0.0808886 0)
(1.07548 -0.0953479 0)
(1.07852 -0.111728 0)
(1.07937 -0.129912 0)
(1.0774 -0.149614 0)
(1.07196 -0.170323 0)
(1.06261 -0.191319 0)
(1.04934 -0.211825 0)
(1.03256 -0.231018 0)
(1.0129 -0.247709 0)
(0.991578 -0.259981 0)
(0.970728 -0.265693 0)
(0.952699 -0.265543 0)
(0.937983 -0.265692 0)
(0.917994 -0.269516 0)
(0.887552 -0.270455 0)
(0.860404 -0.267819 0)
(0.843806 -0.264838 0)
(0.829869 -0.259552 0)
(1.02249 -0.00269533 0)
(1.02408 -0.00900412 0)
(1.02688 -0.0143024 0)
(1.03067 -0.0202909 0)
(1.03549 -0.0261392 0)
(1.0411 -0.0325996 0)
(1.04741 -0.0396719 0)
(1.05424 -0.0477026 0)
(1.06135 -0.0569616 0)
(1.06845 -0.0677736 0)
(1.07516 -0.08042 0)
(1.08101 -0.0951318 0)
(1.08549 -0.112042 0)
(1.08797 -0.13114 0)
(1.08774 -0.152256 0)
(1.08406 -0.174995 0)
(1.0763 -0.198703 0)
(1.06426 -0.222622 0)
(1.04817 -0.245888 0)
(1.02832 -0.267297 0)
(1.00472 -0.286314 0)
(0.977062 -0.304619 0)
(0.944982 -0.322516 0)
(0.908848 -0.333677 0)
(0.875645 -0.332169 0)
(0.856746 -0.324968 0)
(0.844701 -0.318398 0)
(0.826628 -0.309201 0)
(0.809471 -0.300298 0)
(1.02312 -0.00270833 0)
(1.02474 -0.00901956 0)
(1.02761 -0.0143108 0)
(1.03149 -0.020273 0)
(1.03645 -0.0260563 0)
(1.04225 -0.03243 0)
(1.04883 -0.0393799 0)
(1.05605 -0.0472688 0)
(1.06368 -0.056385 0)
(1.07148 -0.0670847 0)
(1.07909 -0.0796972 0)
(1.08611 -0.094519 0)
(1.092 -0.111772 0)
(1.09613 -0.131549 0)
(1.09776 -0.153794 0)
(1.09608 -0.178248 0)
(1.0903 -0.20439 0)
(1.08002 -0.231534 0)
(1.06525 -0.258917 0)
(1.04598 -0.285409 0)
(1.02231 -0.309203 0)
(0.995717 -0.327312 0)
(0.96886 -0.336369 0)
(0.944267 -0.338797 0)
(0.920259 -0.345085 0)
(0.885627 -0.353547 0)
(0.843435 -0.353353 0)
(0.812766 -0.349687 0)
(0.791063 -0.34393 0)
(1.0237 -0.00272025 0)
(1.02534 -0.00903271 0)
(1.02827 -0.0143168 0)
(1.03223 -0.0202516 0)
(1.03732 -0.0259697 0)
(1.04328 -0.0322545 0)
(1.0501 -0.0390746 0)
(1.05765 -0.0468067 0)
(1.06576 -0.0557517 0)
(1.0742 -0.0662892 0)
(1.08266 -0.0787886 0)
(1.09076 -0.0936033 0)
(1.09801 -0.111035 0)
(1.10377 -0.13127 0)
(1.1073 -0.154361 0)
(1.10774 -0.180199 0)
(1.10422 -0.208436 0)
(1.09615 -0.238497 0)
(1.08336 -0.269716 0)
(1.06564 -0.301018 0)
(1.04246 -0.330754 0)
(1.01317 -0.358674 0)
(0.977152 -0.387318 0)
(0.93407 -0.414919 0)
(0.885683 -0.428755 0)
(0.844695 -0.424523 0)
(0.820692 -0.417474 0)
(0.796904 -0.409714 0)
(0.767817 -0.397178 0)
(1.02422 -0.00273113 0)
(1.02589 -0.0090439 0)
(1.02887 -0.014321 0)
(1.03289 -0.0202281 0)
(1.03809 -0.0258824 0)
(1.04419 -0.0320786 0)
(1.05123 -0.038766 0)
(1.05908 -0.0463333 0)
(1.06761 -0.0550881 0)
(1.07662 -0.0654284 0)
(1.08586 -0.0777561 0)
(1.09496 -0.0924718 0)
(1.10348 -0.109942 0)
(1.11082 -0.130443 0)
(1.11623 -0.154126 0)
(1.11882 -0.181024 0)
(1.11773 -0.210974 0)
(1.11224 -0.243548 0)
(1.10198 -0.278201 0)
(1.08651 -0.314171 0)
(1.06491 -0.350065 0)
(1.03682 -0.383575 0)
(1.00427 -0.410197 0)
(0.969897 -0.424633 0)
(0.935967 -0.432925 0)
(0.897611 -0.450367 0)
(0.843172 -0.463728 0)
(0.78718 -0.461105 0)
(0.748954 -0.455798 0)
(1.02468 -0.00274102 0)
(1.02638 -0.0090534 0)
(1.02941 -0.0143238 0)
(1.03347 -0.0202037 0)
(1.03878 -0.0257966 0)
(1.045 -0.0319066 0)
(1.05222 -0.0384618 0)
(1.06033 -0.0458617 0)
(1.06923 -0.0544162 0)
(1.07876 -0.0645369 0)
(1.08869 -0.0766516 0)
(1.09871 -0.0911987 0)
(1.10841 -0.108597 0)
(1.11725 -0.129201 0)
(1.12446 -0.153255 0)
(1.12919 -0.180908 0)
(1.1306 -0.212178 0)
(1.12792 -0.246818 0)
(1.12059 -0.284428 0)
(1.10804 -0.324491 0)
(1.08924 -0.365837 0)
(1.0628 -0.40664 0)
(1.02725 -0.447301 0)
(0.981533 -0.491769 0)
(0.92471 -0.534832 0)
(0.859265 -0.552961 0)
(0.805362 -0.546387 0)
(0.769212 -0.541617 0)
(0.72693 -0.530076 0)
(1.0251 -0.00274997 0)
(1.02681 -0.00906148 0)
(1.02988 -0.0143257 0)
(1.034 -0.0201792 0)
(1.03939 -0.0257142 0)
(1.04571 -0.0317413 0)
(1.05309 -0.0381677 0)
(1.06143 -0.0454025 0)
(1.07066 -0.0537536 0)
(1.08064 -0.063643 0)
(1.0912 -0.0755176 0)
(1.10205 -0.0898461 0)
(1.11284 -0.107089 0)
(1.12305 -0.127665 0)
(1.13198 -0.151903 0)
(1.13879 -0.18005 0)
(1.14267 -0.212273 0)
(1.14288 -0.248526 0)
(1.13877 -0.288566 0)
(1.12959 -0.332076 0)
(1.11424 -0.378455 0)
(1.09099 -0.426511 0)
(1.05897 -0.473588 0)
(1.0201 -0.512759 0)
(0.976071 -0.535924 0)
(0.928806 -0.556665 0)
(0.869251 -0.593975 0)
(0.785724 -0.611626 0)
(0.708521 -0.604507 0)
(1.02548 -0.00275805 0)
(1.0272 -0.00906835 0)
(1.03031 -0.0143269 0)
(1.03446 -0.0201553 0)
(1.03992 -0.0256362 0)
(1.04633 -0.0315849 0)
(1.05386 -0.0378881 0)
(1.06239 -0.0449634 0)
(1.0719 -0.0531132 0)
(1.08228 -0.0627679 0)
(1.09339 -0.0743872 0)
(1.105 -0.0884637 0)
(1.11677 -0.105492 0)
(1.12825 -0.12594 0)
(1.13878 -0.15021 0)
(1.14756 -0.17863 0)
(1.15382 -0.21149 0)
(1.15688 -0.248914 0)
(1.15611 -0.290847 0)
(1.15064 -0.337171 0)
(1.13929 -0.387623 0)
(1.12062 -0.441499 0)
(1.09232 -0.497299 0)
(1.05054 -0.556085 0)
(0.994225 -0.625781 0)
(0.920956 -0.696484 0)
(0.828472 -0.722793 0)
(0.747306 -0.715204 0)
(0.686789 -0.713249 0)
(1.02582 -0.00276529 0)
(1.02755 -0.0090742 0)
(1.03069 -0.0143276 0)
(1.03487 -0.0201325 0)
(1.0404 -0.0255634 0)
(1.04687 -0.0314388 0)
(1.05452 -0.0376259 0)
(1.06322 -0.0445496 0)
(1.07298 -0.0525047 0)
(1.08371 -0.0619275 0)
(1.09531 -0.0732865 0)
(1.10759 -0.0870923 0)
(1.12025 -0.103866 0)
(1.13287 -0.124115 0)
(1.14487 -0.148298 0)
(1.15548 -0.176819 0)
(1.16399 -0.210057 0)
(1.16978 -0.248268 0)
(1.17231 -0.291571 0)
(1.17075 -0.340074 0)
(1.16376 -0.393738 0)
(1.14995 -0.452542 0)
(1.1275 -0.516603 0)
(1.09372 -0.583168 0)
(1.04877 -0.641287 0)
(0.992986 -0.67808 0)
(0.92772 -0.725519 0)
(0.832795 -0.803533 0)
(0.693536 -0.819336 0)
(1.02611 -0.00277174 0)
(1.02786 -0.0090792 0)
(1.03102 -0.0143279 0)
(1.03524 -0.0201109 0)
(1.04081 -0.0254962 0)
(1.04735 -0.0313037 0)
(1.0551 -0.0373828 0)
(1.06394 -0.0441644 0)
(1.07391 -0.0519342 0)
(1.08496 -0.0611332 0)
(1.09699 -0.0722345 0)
(1.10985 -0.0857623 0)
(1.1233 -0.102258 0)
(1.13695 -0.122259 0)
(1.15027 -0.14627 0)
(1.16257 -0.174754 0)
(1.17316 -0.208164 0)
(1.18152 -0.246847 0)
(1.18717 -0.291044 0)
(1.1895 -0.341099 0)
(1.18715 -0.397254 0)
(1.17853 -0.459642 0)
(1.16293 -0.529102 0)
(1.1368 -0.605456 0)
(1.08995 -0.689516 0)
(1.02341 -0.799569 0)
(0.937797 -0.929401 0)
(0.793893 -0.982965 0)
(0.62892 -0.969276 0)
(1.02638 -0.00277746 0)
(1.02814 -0.00908348 0)
(1.03132 -0.0143279 0)
(1.03556 -0.0200909 0)
(1.04118 -0.0254347 0)
(1.04777 -0.03118 0)
(1.05561 -0.0371598 0)
(1.06457 -0.0438097 0)
(1.07473 -0.0514059 0)
(1.08603 -0.0603927 0)
(1.09843 -0.0712453 0)
(1.11181 -0.0844975 0)
(1.12596 -0.100706 0)
(1.14053 -0.120431 0)
(1.15503 -0.144213 0)
(1.16885 -0.172559 0)
(1.18136 -0.20598 0)
(1.19209 -0.244896 0)
(1.20063 -0.289615 0)
(1.20658 -0.340635 0)
(1.20895 -0.398558 0)
(1.20587 -0.463601 0)
(1.19643 -0.536855 0)
(1.17965 -0.621867 0)
(1.1505 -0.718032 0)
(1.10471 -0.804449 0)
(1.0355 -0.860817 0)
(0.946073 -0.976061 0)
(0.766336 -1.14751 0)
(1.02661 -0.0027825 0)
(1.02838 -0.00908717 0)
(1.03158 -0.0143277 0)
(1.03584 -0.0200726 0)
(1.04149 -0.0253791 0)
(1.04813 -0.0310677 0)
(1.05605 -0.036957 0)
(1.06511 -0.0434862 0)
(1.07543 -0.0509218 0)
(1.08696 -0.0597103 0)
(1.09969 -0.0703272 0)
(1.11351 -0.0833127 0)
(1.12827 -0.0992342 0)
(1.14365 -0.11867 0)
(1.15921 -0.142186 0)
(1.17437 -0.170325 0)
(1.1886 -0.203637 0)
(1.20149 -0.242599 0)
(1.21269 -0.287561 0)
(1.22192 -0.339067 0)
(1.2287 -0.398022 0)
(1.23133 -0.465001 0)
(1.22817 -0.540701 0)
(1.22092 -0.62912 0)
(1.20715 -0.733126 0)
(1.16279 -0.845501 0)
(1.08971 -1.01181 0)
(1.00838 -1.28817 0)
(0.703605 -1.35874 0)
(0.998002 -0.00387815 0)
(0.998324 -0.00375223 0)
(0.998511 -0.00363234 0)
(0.99858 -0.00351791 0)
(0.998537 -0.00340847 0)
(0.998382 -0.00330335 0)
(0.998103 -0.00320205 0)
(0.997682 -0.0031044 0)
(0.997098 -0.0030106 0)
(0.996328 -0.00292133 0)
(0.995357 -0.00283775 0)
(0.99418 -0.0027615 0)
(0.992814 -0.00269445 0)
(0.991304 -0.00263837 0)
(0.98972 -0.00259434 0)
(0.988163 -0.00256217 0)
(0.986753 -0.0025398 0)
(0.985614 -0.00252299 0)
(0.984856 -0.00250547 0)
(0.99836 -0.00917995 0)
(0.998211 -0.00908843 0)
(0.998181 -0.00898455 0)
(0.998248 -0.00887267 0)
(0.998404 -0.00875435 0)
(0.998652 -0.0086307 0)
(0.999006 -0.00850213 0)
(0.999492 -0.00836808 0)
(1.00014 -0.0082268 0)
(1.00098 -0.0080752 0)
(1.00204 -0.00790868 0)
(1.00332 -0.00772111 0)
(1.00482 -0.00750529 0)
(1.00649 -0.00725381 0)
(1.00822 -0.00696044 0)
(1.0099 -0.00662192 0)
(1.01136 -0.00623974 0)
(1.01244 -0.00582139 0)
(1.01299 -0.00538057 0)
(0.993398 -0.0139429 0)
(0.993375 -0.0135309 0)
(0.993297 -0.013105 0)
(0.993165 -0.0126641 0)
(0.992972 -0.0122095 0)
(0.992702 -0.0117424 0)
(0.992327 -0.0112652 0)
(0.991812 -0.0107816 0)
(0.991114 -0.0102974 0)
(0.990184 -0.00982012 0)
(0.988979 -0.00936013 0)
(0.987469 -0.00893001 0)
(0.985654 -0.00854408 0)
(0.98358 -0.00821692 0)
(0.981348 -0.00796103 0)
(0.97912 -0.00778394 0)
(0.977104 -0.00768537 0)
(0.97553 -0.00765517 0)
(0.974605 -0.00767304 0)
(0.98989 -0.0237316 0)
(0.98944 -0.0234839 0)
(0.989086 -0.023232 0)
(0.988821 -0.0229781 0)
(0.988653 -0.0227215 0)
(0.988603 -0.0224616 0)
(0.988706 -0.0221974 0)
(0.989011 -0.0219269 0)
(0.989582 -0.0216466 0)
(0.990488 -0.0213508 0)
(0.991797 -0.0210307 0)
(0.993554 -0.0206748 0)
(0.995763 -0.0202684 0)
(0.998362 -0.0197956 0)
(1.00121 -0.0192416 0)
(1.00406 -0.0185965 0)
(1.00663 -0.0178593 0)
(1.00859 -0.0170412 0)
(1.00964 -0.0161658 0)
(0.984131 -0.0305754 0)
(0.983969 -0.0298352 0)
(0.983759 -0.0290835 0)
(0.983507 -0.0283192 0)
(0.983205 -0.0275437 0)
(0.982835 -0.0267573 0)
(0.982362 -0.0259603 0)
(0.981736 -0.0251541 0)
(0.980889 -0.0243414 0)
(0.979739 -0.0235267 0)
(0.978197 -0.0227175 0)
(0.976188 -0.0219249 0)
(0.973675 -0.0211635 0)
(0.970692 -0.0204504 0)
(0.967372 -0.0198022 0)
(0.963966 -0.0192313 0)
(0.960827 -0.0187411 0)
(0.95836 -0.0183223 0)
(0.956937 -0.0179519 0)
(0.976722 -0.0394123 0)
(0.976054 -0.0389189 0)
(0.975464 -0.0384085 0)
(0.974949 -0.0378847 0)
(0.974515 -0.0373464 0)
(0.974183 -0.0367933 0)
(0.973993 -0.0362252 0)
(0.974003 -0.0356414 0)
(0.974291 -0.0350405 0)
(0.974957 -0.0344195 0)
(0.976107 -0.0337725 0)
(0.977834 -0.0330901 0)
(0.980187 -0.0323583 0)
(0.983127 -0.0315594 0)
(0.986492 -0.0306742 0)
(0.989981 -0.0296869 0)
(0.993171 -0.0285906 0)
(0.995585 -0.0273928 0)
(0.996793 -0.0261177 0)
(0.970033 -0.0476183 0)
(0.969547 -0.0465301 0)
(0.969028 -0.0454177 0)
(0.968481 -0.0442807 0)
(0.967903 -0.0431214 0)
(0.967276 -0.0419405 0)
(0.96657 -0.0407381 0)
(0.965733 -0.0395145 0)
(0.964691 -0.0382704 0)
(0.963342 -0.0370078 0)
(0.961566 -0.0357309 0)
(0.95924 -0.0344477 0)
(0.956273 -0.0331713 0)
(0.952655 -0.0319193 0)
(0.94851 -0.0307125 0)
(0.944136 -0.0295697 0)
(0.940001 -0.0285018 0)
(0.936674 -0.0275056 0)
(0.934694 -0.0265612 0)
(0.960414 -0.0560232 0)
(0.959302 -0.0552095 0)
(0.958261 -0.0543583 0)
(0.957284 -0.0534735 0)
(0.956374 -0.0525529 0)
(0.955546 -0.0515954 0)
(0.954834 -0.0506008 0)
(0.954291 -0.0495693 0)
(0.953995 -0.0485013 0)
(0.954055 -0.047397 0)
(0.954604 -0.0462553 0)
(0.955776 -0.0450719 0)
(0.957676 -0.0438379 0)
(0.960316 -0.0425383 0)
(0.963565 -0.0411532 0)
(0.967096 -0.0396622 0)
(0.970408 -0.0380512 0)
(0.972896 -0.0363213 0)
(0.974006 -0.0344937 0)
(0.951681 -0.0668732 0)
(0.95062 -0.0652769 0)
(0.949529 -0.0636374 0)
(0.948419 -0.0619561 0)
(0.94729 -0.0602363 0)
(0.946135 -0.0584799 0)
(0.944933 -0.0566881 0)
(0.943647 -0.0548623 0)
(0.942215 -0.0530036 0)
(0.940541 -0.0511134 0)
(0.9385 -0.0491947 0)
(0.935941 -0.0472536 0)
(0.932723 -0.0453016 0)
(0.928774 -0.0433574 0)
(0.924164 -0.0414466 0)
(0.919182 -0.039598 0)
(0.914354 -0.0378351 0)
(0.910376 -0.0361661 0)
(0.907939 -0.0345762 0)
(0.940151 -0.0766753 0)
(0.938349 -0.0754395 0)
(0.93662 -0.0741345 0)
(0.934955 -0.0727673 0)
(0.933356 -0.0713384 0)
(0.931837 -0.0698496 0)
(0.930423 -0.0683038 0)
(0.929161 -0.066705 0)
(0.928119 -0.0650578 0)
(0.927402 -0.0633674 0)
(0.927147 -0.0616383 0)
(0.927512 -0.0598726 0)
(0.928651 -0.0580662 0)
(0.930643 -0.0562059 0)
(0.933421 -0.0542666 0)
(0.936688 -0.0522135 0)
(0.939898 -0.0500107 0)
(0.942338 -0.047636 0)
(0.943316 -0.0450958 0)
(0.92951 -0.0915578 0)
(0.927564 -0.0893566 0)
(0.925615 -0.0870845 0)
(0.923681 -0.0847462 0)
(0.921772 -0.0823452 0)
(0.919891 -0.0798838 0)
(0.918033 -0.0773634 0)
(0.916179 -0.0747852 0)
(0.914285 -0.0721501 0)
(0.912275 -0.0694578 0)
(0.910029 -0.0667082 0)
(0.907384 -0.0639028 0)
(0.904147 -0.0610482 0)
(0.900157 -0.0581606 0)
(0.895369 -0.0552705 0)
(0.889976 -0.052422 0)
(0.884484 -0.0496649 0)
(0.879686 -0.0470374 0)
(0.876462 -0.0445452 0)
(0.916406 -0.104796 0)
(0.913608 -0.102957 0)
(0.910911 -0.100995 0)
(0.908306 -0.0989209 0)
(0.905793 -0.0967446 0)
(0.903384 -0.0944743 0)
(0.901097 -0.0921199 0)
(0.898964 -0.0896918 0)
(0.897038 -0.0872009 0)
(0.895397 -0.0846585 0)
(0.894158 -0.0820763 0)
(0.893478 -0.0794646 0)
(0.893537 -0.0768287 0)
(0.894495 -0.0741626 0)
(0.896395 -0.0714412 0)
(0.899053 -0.0686154 0)
(0.901966 -0.0656167 0)
(0.90434 -0.0623786 0)
(0.905298 -0.05887 0)
(0.903687 -0.124486 0)
(0.900468 -0.121533 0)
(0.897303 -0.118464 0)
(0.894218 -0.115293 0)
(0.891236 -0.112019 0)
(0.888369 -0.108642 0)
(0.885622 -0.105162 0)
(0.882991 -0.101579 0)
(0.880451 -0.0978934 0)
(0.877952 -0.0941052 0)
(0.875398 -0.0902126 0)
(0.872634 -0.0862139 0)
(0.869445 -0.0821095 0)
(0.86558 -0.0779096 0)
(0.86084 -0.073644 0)
(0.855219 -0.0693719 0)
(0.84908 -0.0651812 0)
(0.84324 -0.0611689 0)
(0.838819 -0.0573992 0)
(0.889033 -0.142585 0)
(0.884808 -0.139807 0)
(0.880743 -0.136808 0)
(0.876839 -0.133609 0)
(0.873091 -0.130233 0)
(0.869513 -0.126706 0)
(0.866119 -0.123051 0)
(0.86293 -0.119292 0)
(0.859979 -0.115454 0)
(0.857314 -0.111558 0)
(0.855013 -0.107629 0)
(0.853197 -0.103691 0)
(0.852039 -0.0997664 0)
(0.85175 -0.0958686 0)
(0.852511 -0.0919909 0)
(0.854345 -0.0880876 0)
(0.856931 -0.084063 0)
(0.859492 -0.0797838 0)
(0.860915 -0.0751332 0)
(0.873711 -0.167211 0)
(0.868638 -0.163176 0)
(0.863734 -0.158935 0)
(0.859014 -0.154509 0)
(0.854531 -0.149902 0)
(0.850299 -0.145111 0)
(0.846335 -0.140142 0)
(0.842647 -0.135001 0)
(0.839225 -0.129696 0)
(0.836042 -0.124233 0)
(0.833035 -0.11862 0)
(0.830086 -0.112859 0)
(0.826997 -0.10695 0)
(0.82348 -0.100897 0)
(0.819191 -0.0947174 0)
(0.813851 -0.0884689 0)
(0.807491 -0.0822698 0)
(0.800739 -0.0762965 0)
(0.794914 -0.0707332 0)
(0.856892 -0.191299 0)
(0.850478 -0.187044 0)
(0.844304 -0.182348 0)
(0.838461 -0.177291 0)
(0.83292 -0.171899 0)
(0.827715 -0.166239 0)
(0.822869 -0.160353 0)
(0.818395 -0.154292 0)
(0.814318 -0.148109 0)
(0.810656 -0.141853 0)
(0.807445 -0.135576 0)
(0.804748 -0.129334 0)
(0.802678 -0.123185 0)
(0.801422 -0.117184 0)
(0.801246 -0.111377 0)
(0.802408 -0.105772 0)
(0.804951 -0.100297 0)
(0.808376 -0.0947716 0)
(0.811425 -0.0889332 0)
(0.838309 -0.221681 0)
(0.830241 -0.215833 0)
(0.82263 -0.209614 0)
(0.815364 -0.202949 0)
(0.80858 -0.195918 0)
(0.802313 -0.188519 0)
(0.796584 -0.180795 0)
(0.791433 -0.172789 0)
(0.786863 -0.164544 0)
(0.782871 -0.156107 0)
(0.779422 -0.147519 0)
(0.77644 -0.138816 0)
(0.773776 -0.130024 0)
(0.771176 -0.121161 0)
(0.768243 -0.11224 0)
(0.764461 -0.103293 0)
(0.759368 -0.0944287 0)
(0.752992 -0.0858703 0)
(0.746443 -0.0779844 0)
(0.818096 -0.253464 0)
(0.80801 -0.246944 0)
(0.798227 -0.239411 0)
(0.789118 -0.231221 0)
(0.780661 -0.222355 0)
(0.772901 -0.212946 0)
(0.765936 -0.203097 0)
(0.759768 -0.1929 0)
(0.754445 -0.182478 0)
(0.749967 -0.17194 0)
(0.746342 -0.161413 0)
(0.743571 -0.151022 0)
(0.741678 -0.140903 0)
(0.740745 -0.131194 0)
(0.740964 -0.122037 0)
(0.742683 -0.113554 0)
(0.746328 -0.105798 0)
(0.752032 -0.0986698 0)
(0.758915 -0.091751 0)
(0.795624 -0.2923 0)
(0.782368 -0.283434 0)
(0.770067 -0.273849 0)
(0.758508 -0.263223 0)
(0.747843 -0.251731 0)
(0.738285 -0.239497 0)
(0.729821 -0.226591 0)
(0.722588 -0.213199 0)
(0.716593 -0.19944 0)
(0.711873 -0.185474 0)
(0.708403 -0.171438 0)
(0.706133 -0.157465 0)
(0.704943 -0.143666 0)
(0.704622 -0.130128 0)
(0.704808 -0.116908 0)
(0.704906 -0.104037 0)
(0.704041 -0.0915885 0)
(0.701305 -0.0797029 0)
(0.696543 -0.0689046 0)
(0.771237 -0.334688 0)
(0.754486 -0.324733 0)
(0.738482 -0.312778 0)
(0.723539 -0.299306 0)
(0.710093 -0.284591 0)
(0.698026 -0.268659 0)
(0.687667 -0.251872 0)
(0.679 -0.234374 0)
(0.672143 -0.216443 0)
(0.667088 -0.198317 0)
(0.663844 -0.180256 0)
(0.662354 -0.162528 0)
(0.662563 -0.145412 0)
(0.664411 -0.129205 0)
(0.667909 -0.114214 0)
(0.673235 -0.10077 0)
(0.680888 -0.0891209 0)
(0.691576 -0.0795603 0)
(0.705901 -0.0717099 0)
(0.744331 -0.386125 0)
(0.722541 -0.373163 0)
(0.701681 -0.35787 0)
(0.682813 -0.340823 0)
(0.66549 -0.321632 0)
(0.650488 -0.301055 0)
(0.637692 -0.27914 0)
(0.627386 -0.256328 0)
(0.619566 -0.232923 0)
(0.614323 -0.209256 0)
(0.61161 -0.185658 0)
(0.611397 -0.162445 0)
(0.613562 -0.139915 0)
(0.617917 -0.118331 0)
(0.624126 -0.0979092 0)
(0.631612 -0.0787434 0)
(0.639309 -0.0610418 0)
(0.645791 -0.0446481 0)
(0.648016 -0.0300983 0)
(0.716913 -0.44426 0)
(0.687536 -0.428374 0)
(0.661145 -0.410052 0)
(0.636232 -0.387809 0)
(0.614523 -0.363471 0)
(0.595606 -0.336797 0)
(0.580031 -0.308543 0)
(0.567731 -0.279145 0)
(0.558897 -0.249011 0)
(0.553444 -0.218618 0)
(0.551427 -0.188371 0)
(0.552751 -0.158711 0)
(0.55735 -0.130104 0)
(0.565099 -0.103068 0)
(0.575877 -0.0781837 0)
(0.589614 -0.0562458 0)
(0.606743 -0.0376843 0)
(0.627317 -0.0238879 0)
(0.655115 -0.0150494 0)
(0.684247 -0.51231 0)
(0.648437 -0.494531 0)
(0.613174 -0.469637 0)
(0.582248 -0.441828 0)
(0.554829 -0.410199 0)
(0.531843 -0.375983 0)
(0.5131 -0.340001 0)
(0.4989 -0.302623 0)
(0.488957 -0.264588 0)
(0.483447 -0.226266 0)
(0.482191 -0.188141 0)