/*--------------------------------*- C++ -*----------------------------------*\
  =========                 |
  \\      /  F ield         | OpenFOAM: The Open Source CFD Toolbox
   \\    /   O peration     | Website:  https://openfoam.org
    \\  /    A nd           | Version:  10
     \\/     M anipulation  |
\*---------------------------------------------------------------------------*/
FoamFile
{
    format      ascii;
    class       volVectorField;
    location    "0";
    object      U;
}
// * * * * * * * * * * * * * * * * * * * * * * * * * * * * * * * * * * * * * //

dimensions      [0 1 -1 0 0 0 0];

internalField   nonuniform List<vector> 
18483
(
(1.00001 -0.00018246 0)
(1.00001 -0.000658225 0)
(1 -0.00105913 0)
(1 -0.00149633 0)
(0.999997 -0.00192164 0)
(0.999992 -0.00233871 0)
(0.999986 -0.00272796 0)
(0.999979 -0.00307498 0)
(0.999972 -0.00336759 0)
(0.999963 -0.00359916 0)
(0.999951 -0.00377116 0)
(0.999934 -0.00389318 0)
(0.999908 -0.00398232 0)
(0.99987 -0.0040872 0)
(0.999813 -0.00425836 0)
(0.999721 -0.00453045 0)
(0.999544 -0.00485583 0)
(0.99907 -0.00512133 0)
(0.997787 -0.00522562 0)
(0.995177 -0.00507551 0)
(0.991785 -0.00468759 0)
(0.989509 -0.00423582 0)
(0.989684 -0.00385224 0)
(0.991639 -0.00352186 0)
(0.993936 -0.00322825 0)
(0.995762 -0.00297526 0)
(0.996981 -0.00276218 0)
(0.997724 -0.00258634 0)
(0.998153 -0.00244306 0)
(1.00055 -0.000493374 0)
(1.00059 -0.00177547 0)
(1.00066 -0.002877 0)
(1.00074 -0.00410917 0)
(1.00082 -0.0053377 0)
(1.00087 -0.00657745 0)
(1.0009 -0.00777071 0)
(1.00088 -0.00887392 0)
(1.00082 -0.00984376 0)
(1.00072 -0.0106504 0)
(1.00059 -0.0112785 0)
(1.00046 -0.0117505 0)
(1.00036 -0.01208 0)
(1.00034 -0.0122027 0)
(1.00041 -0.0120385 0)
(1.00051 -0.011512 0)
(1.00055 -0.0106988 0)
(1.00056 -0.00981976 0)
(1.00087 -0.00908131 0)
(1.00214 -0.00870093 0)
(1.00454 -0.00878911 0)
(1.00667 -0.0090996 0)
(1.00677 -0.00929789 0)
(1.00499 -0.00938881 0)
(1.00276 -0.00944554 0)
(1.00101 -0.00947168 0)
(0.999879 -0.00946984 0)
(0.999217 -0.00944335 0)
(0.998844 -0.00939742 0)
(1.00153 -0.000750693 0)
(1.00164 -0.00268734 0)
(1.00185 -0.00436497 0)
(1.00209 -0.00626807 0)
(1.00234 -0.00818696 0)
(1.00254 -0.0101562 0)
(1.00266 -0.0120846 0)
(1.00266 -0.0139017 0)
(1.00254 -0.0155274 0)
(1.00229 -0.0169023 0)
(1.00194 -0.0179798 0)
(1.00152 -0.0187255 0)
(1.0011 -0.0191293 0)
(1.0007 -0.0192128 0)
(1.00025 -0.0191392 0)
(0.99965 -0.0191827 0)
(0.998905 -0.0194143 0)
(0.998003 -0.0196693 0)
(0.99674 -0.0197414 0)
(0.994703 -0.0194619 0)
(0.991786 -0.0187336 0)
(0.989003 -0.0177105 0)
(0.987981 -0.0167555 0)
(0.988989 -0.015929 0)
(0.990785 -0.0151245 0)
(0.99233 -0.0143629 0)
(0.993366 -0.0136771 0)
(0.993987 -0.0130782 0)
(0.994337 -0.0125669 0)
(1.00269 -0.00098083 0)
(1.0029 -0.00348765 0)
(1.00327 -0.00566003 0)
(1.00371 -0.00814243 0)
(1.00417 -0.0106551 0)
(1.00456 -0.0132598 0)
(1.0048 -0.0158423 0)
(1.00485 -0.0183159 0)
(1.00466 -0.0205721 0)
(1.00421 -0.0225228 0)
(1.00354 -0.0240926 0)
(1.00269 -0.0252276 0)
(1.0017 -0.0259614 0)
(1.00063 -0.0264071 0)
(0.999517 -0.0266403 0)
(0.998466 -0.026485 0)
(0.997539 -0.025725 0)
(0.996716 -0.024505 0)
(0.996194 -0.0231984 0)
(0.996632 -0.0221128 0)
(0.998503 -0.0214154 0)
(1.00073 -0.021073 0)
(1.00115 -0.0207642 0)
(0.999186 -0.0203706 0)
(0.996322 -0.0200278 0)
(0.993919 -0.0197333 0)
(0.992278 -0.0194399 0)
(0.991218 -0.0191364 0)
(0.990524 -0.0188258 0)
(1.00389 -0.0011953 0)
(1.0042 -0.00422139 0)
(1.00475 -0.00683652 0)
(1.00541 -0.00983424 0)
(1.00612 -0.0128709 0)
(1.00674 -0.0160445 0)
(1.00717 -0.0192278 0)
(1.00732 -0.0223287 0)
(1.00711 -0.0252149 0)
(1.00654 -0.0277676 0)
(1.00561 -0.0298866 0)
(1.00437 -0.031513 0)
(1.0029 -0.032645 0)
(1.00133 -0.0332602 0)
(0.999768 -0.0333312 0)
(0.998256 -0.0329861 0)
(0.996686 -0.0325688 0)
(0.995005 -0.032345 0)
(0.993136 -0.0321932 0)
(0.990702 -0.0318494 0)
(0.987205 -0.0311152 0)
(0.983163 -0.0299793 0)
(0.980593 -0.0287628 0)
(0.98066 -0.0276446 0)
(0.982113 -0.0264885 0)
(0.983397 -0.0253148 0)
(0.984113 -0.0242297 0)
(0.98442 -0.0232737 0)
(0.9845 -0.0224549 0)
(1.0051 -0.00139277 0)
(1.00552 -0.00488848 0)
(1.00626 -0.00790061 0)
(1.00716 -0.0113582 0)
(1.00815 -0.0148621 0)
(1.00905 -0.0185549 0)
(1.00973 -0.0223031 0)
(1.01006 -0.0260175 0)
(1.00993 -0.0295482 0)
(1.00929 -0.032756 0)
(1.00813 -0.0355193 0)
(1.00649 -0.0377476 0)
(1.00448 -0.0393824 0)
(1.00222 -0.0403701 0)
(0.999784 -0.04076 0)
(0.997247 -0.0406885 0)
(0.994767 -0.0400711 0)
(0.99258 -0.0387213 0)
(0.99098 -0.0368274 0)
(0.990514 -0.0348926 0)
(0.991746 -0.0333361 0)
(0.993906 -0.032261 0)
(0.994442 -0.0313431 0)
(0.991804 -0.030378 0)
(0.987593 -0.0295768 0)
(0.983996 -0.0289644 0)
(0.981534 -0.0284 0)
(0.979894 -0.0278371 0)
(0.978759 -0.0272728 0)
(1.00636 -0.0015683 0)
(1.00689 -0.00547445 0)
(1.00781 -0.00883322 0)
(1.00897 -0.012693 0)
(1.01026 -0.0166084 0)
(1.01148 -0.0207728 0)
(1.01246 -0.0250537 0)
(1.01303 -0.0293776 0)
(1.01305 -0.0335943 0)
(1.01239 -0.0375577 0)
(1.01104 -0.0411213 0)
(1.00904 -0.044148 0)
(1.0065 -0.0465411 0)
(1.00355 -0.0482438 0)
(1.00029 -0.0492163 0)
(0.996902 -0.0494741 0)
(0.993539 -0.049197 0)
(0.990301 -0.0487562 0)
(0.98724 -0.0483735 0)
(0.983959 -0.0478364 0)
(0.979439 -0.0468136 0)
(0.973586 -0.0452629 0)
(0.968917 -0.043588 0)
(0.967969 -0.0420746 0)
(0.96946 -0.0404716 0)
(0.970709 -0.0387265 0)
(0.971055 -0.0370696 0)
(0.970895 -0.0355939 0)
(0.970529 -0.0343152 0)
(1.00765 -0.0017186 0)
(1.00829 -0.00596939 0)
(1.0094 -0.00962001 0)
(1.01081 -0.0138204 0)
(1.01241 -0.0180877 0)
(1.01398 -0.0226695 0)
(1.01532 -0.0274434 0)
(1.01621 -0.0323631 0)
(1.01646 -0.0372876 0)
(1.01594 -0.0420641 0)
(1.01458 -0.046514 0)
(1.01242 -0.0504557 0)
(1.00953 -0.0537457 0)
(1.00605 -0.0562905 0)
(1.00208 -0.05802 0)
(0.997735 -0.0589613 0)
(0.993183 -0.0591812 0)
(0.988753 -0.0585016 0)
(0.984951 -0.056741 0)
(0.982537 -0.0542338 0)
(0.982523 -0.0516754 0)
(0.984762 -0.0495649 0)
(0.986023 -0.0477504 0)
(0.982825 -0.0459384 0)
(0.976593 -0.0444622 0)
(0.971146 -0.0434572 0)
(0.967509 -0.0425946 0)
(0.965015 -0.0417428 0)
(0.963199 -0.040898 0)
(1.00893 -0.00184341 0)
(1.00967 -0.00637349 0)
(1.01097 -0.0102611 0)
(1.01264 -0.0147395 0)
(1.01456 -0.0192954 0)
(1.01649 -0.024232 0)
(1.01823 -0.0294415 0)
(1.01951 -0.0349102 0)
(1.02013 -0.0405113 0)
(1.0199 -0.0460942 0)
(1.0187 -0.0514685 0)
(1.0165 -0.0564356 0)
(1.01332 -0.0608176 0)
(1.00929 -0.0644924 0)
(1.00452 -0.0673786 0)
(0.999195 -0.0694141 0)
(0.993552 -0.070603 0)
(0.987837 -0.0711377 0)
(0.982231 -0.0713727 0)
(0.976601 -0.0713941 0)
(0.96983 -0.0708352 0)
(0.961099 -0.0693781 0)
(0.953258 -0.0673721 0)
(0.950922 -0.0653997 0)
(0.953064 -0.0632387 0)
(0.95477 -0.0606735 0)
(0.954729 -0.058168 0)
(0.953975 -0.0559489 0)
(0.953023 -0.0540218 0)
(1.01016 -0.00194501 0)
(1.01101 -0.00669553 0)
(1.01248 -0.0107696 0)
(1.01439 -0.0154669 0)
(1.01662 -0.0202488 0)
(1.01894 -0.0254718 0)
(1.02111 -0.0310453 0)
(1.02286 -0.0369922 0)
(1.02393 -0.0432119 0)
(1.02409 -0.0495795 0)
(1.02315 -0.0559173 0)
(1.02102 -0.0620192 0)
(1.0177 -0.0676584 0)
(1.01331 -0.072624 0)
(1.00802 -0.0767261 0)
(1.00199 -0.0797882 0)
(0.99537 -0.0817187 0)
(0.988345 -0.0824072 0)
(0.981483 -0.0815906 0)
(0.975906 -0.0792953 0)
(0.973318 -0.0762577 0)
(0.974673 -0.0734706 0)
(0.97657 -0.0712463 0)
(0.972737 -0.0690747 0)
(0.963442 -0.0671303 0)
(0.955128 -0.0658863 0)
(0.949983 -0.0648547 0)
(0.946463 -0.0637345 0)
(0.943817 -0.0625871 0)
(1.01133 -0.00202697 0)
(1.01226 -0.00694844 0)
(1.0139 -0.0111657 0)
(1.01604 -0.0160297 0)
(1.01858 -0.0209795 0)
(1.02128 -0.0264216 0)
(1.02389 -0.0322835 0)
(1.02614 -0.0386292 0)
(1.02774 -0.0453964 0)
(1.0284 -0.052499 0)
(1.0279 -0.0597777 0)
(1.02609 -0.0670148 0)
(1.02295 -0.0739364 0)
(1.01851 -0.0802578 0)
(1.01287 -0.0857425 0)
(1.00612 -0.0902282 0)
(0.998344 -0.0936459 0)
(0.989793 -0.0960702 0)
(0.980976 -0.0979129 0)
(0.972236 -0.0996017 0)
(0.9626 -0.100804 0)
(0.95034 -0.100591 0)
(0.937913 -0.0986765 0)
(0.9325 -0.0961208 0)
(0.93487 -0.0933856 0)
(0.937113 -0.089964 0)
(0.936221 -0.0864365 0)
(0.934417 -0.0833597 0)
(0.932539 -0.0806794 0)
(1.01241 -0.00209293 0)
(1.01343 -0.00714548 0)
(1.01522 -0.0114704 0)
(1.01757 -0.0164573 0)
(1.02041 -0.0215241 0)
(1.02347 -0.0271233 0)
(1.02654 -0.0332005 0)
(1.02931 -0.0398606 0)
(1.0315 -0.0470826 0)
(1.03279 -0.054823 0)
(1.03292 -0.0629501 0)
(1.03168 -0.0712602 0)
(1.02893 -0.0794806 0)
(1.02459 -0.0873022 0)
(1.01869 -0.0944249 0)
(1.01134 -0.100557 0)
(1.00271 -0.105401 0)
(0.993114 -0.108634 0)
(0.983237 -0.109856 0)
(0.974264 -0.108758 0)
(0.967897 -0.105827 0)
(0.966199 -0.10257 0)
(0.967402 -0.100407 0)
(0.963101 -0.0988295 0)
(0.950234 -0.0969253 0)
(0.937641 -0.0955324 0)
(0.930326 -0.0944841 0)
(0.925399 -0.0930744 0)
(0.921521 -0.0915082 0)
(1.01341 -0.00214604 0)
(1.01451 -0.00729812 0)
(1.01643 -0.0117024 0)
(1.01899 -0.0167765 0)
(1.02209 -0.0219177 0)
(1.02551 -0.0276198 0)
(1.02902 -0.033844 0)
(1.03234 -0.040732 0)
(1.03516 -0.0483038 0)
(1.03716 -0.0565649 0)
(1.03803 -0.0654341 0)
(1.03747 -0.0747547 0)
(1.03526 -0.0842809 0)
(1.03124 -0.0936797 0)
(1.02538 -0.102553 0)
(1.01774 -0.110491 0)
(1.00838 -0.117181 0)
(0.997512 -0.122539 0)
(0.985658 -0.126901 0)
(0.973455 -0.131042 0)
(0.960535 -0.135097 0)
(0.944967 -0.137595 0)
(0.927473 -0.136804 0)
(0.916281 -0.133565 0)
(0.916423 -0.130032 0)
(0.918712 -0.125929 0)
(0.916294 -0.121206 0)
(0.912572 -0.117082 0)
(0.909182 -0.113528 0)
(1.01433 -0.00218882 0)
(1.01549 -0.00741553 0)
(1.01753 -0.0118766 0)
(1.02027 -0.0170095 0)
(1.02363 -0.0221907 0)
(1.02739 -0.0279505 0)
(1.03132 -0.0342617 0)
(1.03516 -0.0412978 0)
(1.03862 -0.0491198 0)
(1.04136 -0.0577893 0)
(1.04304 -0.0672888 0)
(1.0433 -0.0775199 0)
(1.04187 -0.0882708 0)
(1.0385 -0.0992059 0)
(1.03304 -0.109897 0)
(1.0254 -0.119894 0)
(1.01559 -0.128811 0)
(1.00396 -0.136267 0)
(0.991309 -0.141615 0)
(0.978838 -0.14386 0)
(0.967925 -0.142575 0)
(0.960866 -0.139204 0)
(0.958778 -0.136668 0)
(0.954256 -0.136121 0)
(0.938917 -0.135142 0)
(0.920525 -0.133487 0)
(0.909423 -0.132386 0)
(0.902401 -0.130668 0)
(0.896514 -0.1284 0)
(1.01517 -0.00222323 0)
(1.01639 -0.00750476 0)
(1.01854 -0.0120051 0)
(1.02145 -0.0171744 0)
(1.02503 -0.0223689 0)
(1.02909 -0.0281502 0)
(1.03342 -0.0344985 0)
(1.03777 -0.0416146 0)
(1.04185 -0.049598 0)
(1.04535 -0.0585649 0)
(1.04789 -0.0685608 0)
(1.04913 -0.0795513 0)
(1.04871 -0.0913831 0)
(1.04627 -0.103772 0)
(1.0415 -0.116317 0)
(1.0342 -0.128521 0)
(1.02435 -0.139863 0)
(1.01219 -0.149882 0)
(0.998153 -0.158324 0)
(0.982676 -0.165761 0)
(0.965853 -0.173237 0)
(0.946784 -0.180031 0)
(0.924604 -0.18304 0)
(0.905171 -0.18049 0)
(0.898367 -0.175708 0)
(0.899179 -0.170993 0)
(0.895072 -0.165063 0)
(0.888194 -0.159383 0)
(0.882449 -0.154703 0)
(1.01593 -0.00225079 0)
(1.01721 -0.00757128 0)
(1.01946 -0.0120971 0)
(1.02251 -0.0172855 0)
(1.0263 -0.0224732 0)
(1.03064 -0.0282483 0)
(1.03533 -0.034594 0)
(1.04015 -0.0417333 0)
(1.04484 -0.0497982 0)
(1.04909 -0.0589522 0)
(1.05255 -0.0693013 0)
(1.05486 -0.0808867 0)
(1.05557 -0.0936428 0)
(1.05425 -0.107369 0)
(1.05047 -0.121711 0)
(1.04392 -0.136166 0)
(1.03445 -0.15018 0)
(1.02216 -0.163261 0)
(1.00748 -0.174705 0)
(0.991371 -0.183165 0)
(0.975451 -0.186905 0)
(0.961691 -0.18569 0)
(0.952947 -0.182679 0)
(0.946662 -0.18252 0)
(0.930761 -0.183824 0)
(0.905825 -0.182611 0)
(0.887588 -0.181074 0)
(0.877095 -0.179189 0)
(0.868029 -0.175834 0)
(1.01663 -0.00227271 0)
(1.01795 -0.00761944 0)
(1.02029 -0.0121599 0)
(1.02347 -0.0173541 0)
(1.02745 -0.0225204 0)
(1.03203 -0.0282689 0)
(1.03705 -0.0345813 0)
(1.0423 -0.0416978 0)
(1.04756 -0.0497749 0)
(1.05254 -0.0590174 0)
(1.05692 -0.0695896 0)
(1.0603 -0.0816145 0)
(1.06222 -0.0951223 0)
(1.0622 -0.110004 0)
(1.05972 -0.125986 0)
(1.05435 -0.142626 0)
(1.04578 -0.159365 0)
(1.03398 -0.175585 0)
(1.01912 -0.190459 0)
(1.0014 -0.203338 0)
(0.980932 -0.215233 0)
(0.957629 -0.227512 0)
(0.930924 -0.23753 0)
(0.902629 -0.239656 0)
(0.883424 -0.234517 0)
(0.878271 -0.228653 0)
(0.872595 -0.222192 0)
(0.861172 -0.214394 0)
(0.85136 -0.208018 0)
(1.01727 -0.00229 0)
(1.01864 -0.00765282 0)
(1.02105 -0.0121997 0)
(1.02434 -0.0173896 0)
(1.02849 -0.0225241 0)
(1.03329 -0.0282317 0)
(1.0386 -0.0344884 0)
(1.04425 -0.0415465 0)
(1.05003 -0.0495811 0)
(1.05569 -0.0588315 0)
(1.06092 -0.0695148 0)
(1.06537 -0.081829 0)
(1.06857 -0.0958966 0)
(1.06999 -0.111709 0)
(1.06907 -0.12911 0)
(1.06524 -0.147768 0)
(1.05804 -0.167166 0)
(1.04722 -0.186682 0)
(1.03261 -0.205532 0)
(1.01437 -0.222405 0)
(0.993723 -0.235112 0)
(0.97322 -0.241161 0)
(0.955813 -0.240812 0)
(0.943353 -0.240166 0)
(0.926911 -0.244317 0)
(0.896788 -0.246621 0)
(0.866771 -0.244614 0)
(0.849086 -0.242512 0)
(0.83522 -0.238079 0)
(1.01786 -0.00230347 0)
(1.01926 -0.00767438 0)
(1.02174 -0.0122215 0)
(1.02513 -0.0173996 0)
(1.02943 -0.0224953 0)
(1.03442 -0.0281527 0)
(1.04 -0.0343379 0)
(1.046 -0.0413127 0)
(1.05225 -0.049264 0)
(1.05853 -0.058458 0)
(1.06458 -0.0691545 0)
(1.07007 -0.0816156 0)
(1.07456 -0.0960522 0)
(1.07752 -0.112567 0)
(1.0783 -0.131133 0)
(1.07628 -0.151565 0)
(1.07088 -0.173446 0)
(1.06159 -0.196177 0)
(1.04804 -0.218908 0)
(1.03004 -0.240269 0)
(1.00757 -0.259414 0)
(0.980602 -0.278121 0)
(0.94923 -0.297421 0)
(0.913317 -0.311086 0)
(0.878382 -0.311212 0)
(0.858494 -0.303801 0)
(0.84893 -0.297316 0)
(0.832522 -0.288249 0)
(0.815162 -0.278974 0)
(1.0184 -0.0023138 0)
(1.01983 -0.00768658 0)
(1.02238 -0.0122294 0)
(1.02585 -0.0173903 0)
(1.03028 -0.022443 0)
(1.03544 -0.0280447 0)
(1.04125 -0.0341482 0)
(1.04757 -0.0410227 0)
(1.05424 -0.0488614 0)
(1.06109 -0.0579483 0)
(1.06791 -0.0685764 0)
(1.07439 -0.0810616 0)
(1.08015 -0.0956982 0)
(1.08462 -0.112699 0)
(1.08718 -0.132162 0)
(1.08718 -0.154059 0)
(1.08394 -0.178123 0)
(1.07675 -0.203822 0)
(1.0649 -0.230423 0)
(1.04778 -0.256775 0)
(1.02538 -0.280985 0)
(0.999544 -0.299924 0)
(0.973585 -0.309736 0)
(0.950515 -0.311818 0)
(0.929585 -0.317379 0)
(0.897314 -0.327416 0)
(0.853214 -0.328951 0)
(0.819917 -0.32598 0)
(0.798074 -0.321499 0)
(1.01889 -0.00232155 0)
(1.02035 -0.00769149 0)
(1.02295 -0.012227 0)
(1.02649 -0.0173669 0)
(1.03104 -0.0223745 0)
(1.03635 -0.0279176 0)
(1.04237 -0.0339336 0)
(1.04897 -0.0406975 0)
(1.05602 -0.0484034 0)
(1.06339 -0.0573459 0)
(1.0709 -0.0678431 0)
(1.07831 -0.0802553 0)
(1.08525 -0.0949485 0)
(1.09121 -0.112235 0)
(1.09557 -0.132326 0)
(1.0977 -0.155349 0)
(1.09689 -0.181225 0)
(1.09219 -0.209556 0)
(1.08265 -0.239754 0)
(1.06742 -0.270777 0)
(1.04601 -0.300776 0)
(1.01819 -0.329174 0)
(0.983592 -0.358787 0)
(0.941676 -0.388769 0)
(0.892819 -0.406081 0)
(0.849355 -0.403194 0)
(0.825566 -0.395537 0)
(0.80449 -0.388416 0)
(0.775536 -0.3758 0)
(1.01933 -0.00232723 0)
(1.02082 -0.00769088 0)
(1.02347 -0.0122171 0)
(1.02707 -0.0173336 0)
(1.03173 -0.0222955 0)
(1.03716 -0.0277793 0)
(1.04337 -0.0337054 0)
(1.05021 -0.0403537 0)
(1.0576 -0.0479145 0)
(1.06543 -0.0566881 0)
(1.07357 -0.0670103 0)
(1.08181 -0.0792759 0)
(1.08985 -0.0939065 0)
(1.09724 -0.111302 0)
(1.10338 -0.131775 0)
(1.10767 -0.155595 0)
(1.1094 -0.182888 0)
(1.10752 -0.213428 0)
(1.10082 -0.246778 0)
(1.08826 -0.282249 0)
(1.06885 -0.31839 0)
(1.04247 -0.352884 0)
(1.0115 -0.381241 0)
(0.978681 -0.397087 0)
(0.946364 -0.40466 0)
(0.910936 -0.422125 0)
(0.857382 -0.438739 0)
(0.797979 -0.437793 0)
(0.757935 -0.433638 0)
(1.01973 -0.00233128 0)
(1.02123 -0.00768625 0)
(1.02393 -0.0122019 0)
(1.02759 -0.0172939 0)
(1.03234 -0.0222107 0)
(1.03788 -0.027636 0)
(1.04425 -0.0334725 0)
(1.05131 -0.0400042 0)
(1.059 -0.0474145 0)
(1.06723 -0.056005 0)
(1.07593 -0.0661223 0)
(1.08493 -0.0781865 0)
(1.09398 -0.0926603 0)
(1.10271 -0.110016 0)
(1.11056 -0.130664 0)
(1.11695 -0.154983 0)
(1.12126 -0.18329 0)
(1.12238 -0.215569 0)
(1.11891 -0.251552 0)
(1.10966 -0.290883 0)
(1.09351 -0.33243 0)
(1.06945 -0.374144 0)
(1.03635 -0.416115 0)
(0.992616 -0.462558 0)
(0.936523 -0.50948 0)
(0.869421 -0.532043 0)
(0.812767 -0.526099 0)
(0.77795 -0.521189 0)
(0.737459 -0.510927 0)
(1.02008 -0.00233406 0)
(1.02161 -0.00767886 0)
(1.02434 -0.0121835 0)
(1.02805 -0.0172505 0)
(1.03288 -0.0221238 0)
(1.03852 -0.0274925 0)
(1.04502 -0.0332418 0)
(1.05227 -0.0396593 0)
(1.06022 -0.0469185 0)
(1.06881 -0.0553195 0)
(1.078 -0.0652136 0)
(1.08769 -0.0770382 0)
(1.09768 -0.0912868 0)
(1.10764 -0.108489 0)
(1.11709 -0.12914 0)
(1.12549 -0.153706 0)
(1.13229 -0.182655 0)
(1.13647 -0.216201 0)
(1.13649 -0.254269 0)
(1.131 -0.296772 0)
(1.11883 -0.343206 0)
(1.09857 -0.392259 0)
(1.06928 -0.441338 0)
(1.03265 -0.4835 0)
(0.990276 -0.508749 0)
(0.944676 -0.528527 0)
(0.88766 -0.567862 0)
(0.802914 -0.590622 0)
(0.721005 -0.584746 0)
(1.0204 -0.00233588 0)
(1.02194 -0.00766968 0)
(1.0247 -0.0121631 0)
(1.02845 -0.0172056 0)
(1.03335 -0.0220376 0)
(1.03907 -0.0273523 0)
(1.0457 -0.0330183 0)
(1.05311 -0.039326 0)
(1.06128 -0.0464373 0)
(1.07019 -0.0546486 0)
(1.07982 -0.0643108 0)
(1.09012 -0.0758724 0)
(1.10095 -0.0898503 0)
(1.11201 -0.106815 0)
(1.12294 -0.127332 0)
(1.13323 -0.151941 0)
(1.14241 -0.181213 0)
(1.14957 -0.215575 0)
(1.15319 -0.255181 0)
(1.15175 -0.300178 0)
(1.14411 -0.350501 0)
(1.12907 -0.40542 0)
(1.10434 -0.463213 0)
(1.06561 -0.524399 0)
(1.01115 -0.597289 0)
(0.938163 -0.674475 0)
(0.842712 -0.70695 0)
(0.758357 -0.698944 0)
(0.699472 -0.698022 0)
(1.02068 -0.00233696 0)
(1.02224 -0.00765951 0)
(1.02503 -0.0121419 0)
(1.02881 -0.0171606 0)
(1.03377 -0.0219541 0)
(1.03956 -0.0272181 0)
(1.0463 -0.0328056 0)
(1.05385 -0.0390096 0)
(1.06222 -0.0459789 0)
(1.0714 -0.054005 0)
(1.08141 -0.0634352 0)
(1.09224 -0.0747233 0)
(1.1038 -0.088403 0)
(1.11587 -0.105073 0)
(1.12813 -0.125353 0)
(1.14018 -0.149845 0)
(1.15157 -0.179194 0)
(1.16154 -0.213982 0)
(1.16869 -0.254595 0)
(1.17151 -0.301432 0)
(1.16872 -0.354718 0)
(1.15924 -0.414476 0)
(1.14104 -0.480716 0)
(1.1106 -0.550632 0)
(1.0679 -0.613308 0)
(1.01401 -0.653497 0)
(0.950807 -0.700062 0)
(0.857537 -0.783526 0)
(0.713655 -0.806563 0)
(1.02094 -0.00233751 0)
(1.0225 -0.00764892 0)
(1.02531 -0.0121206 0)
(1.02913 -0.0171169 0)
(1.03414 -0.0218747 0)
(1.04 -0.0270916 0)
(1.04683 -0.0326062 0)
(1.05449 -0.0387134 0)
(1.06303 -0.0455486 0)
(1.07244 -0.0533978 0)
(1.08278 -0.0626018 0)
(1.09408 -0.073616 0)
(1.10629 -0.0869841 0)
(1.11925 -0.103325 0)
(1.1327 -0.123295 0)
(1.14634 -0.147549 0)
(1.15978 -0.176785 0)
(1.17235 -0.21169 0)
(1.18282 -0.252829 0)
(1.18985 -0.300868 0)
(1.19217 -0.356353 0)
(1.18851 -0.419563 0)
(1.1779 -0.491335 0)
(1.15612 -0.571148 0)
(1.11263 -0.658959 0)
(1.04817 -0.773844 0)
(0.963155 -0.914358 0)
(0.814169 -0.977956 0)
(0.642845 -0.96247 0)
(1.02116 -0.00233766 0)
(1.02274 -0.00763837 0)
(1.02557 -0.0121 0)
(1.02941 -0.0170753 0)
(1.03447 -0.0218005 0)
(1.04037 -0.0269739 0)
(1.04729 -0.0324216 0)
(1.05505 -0.0384395 0)
(1.06373 -0.0451499 0)
(1.07334 -0.0528331 0)
(1.08397 -0.0618213 0)
(1.09567 -0.0725685 0)
(1.10845 -0.0856237 0)
(1.12219 -0.101619 0)
(1.13669 -0.121236 0)
(1.15175 -0.145168 0)
(1.16705 -0.174152 0)
(1.18201 -0.208949 0)
(1.19552 -0.250241 0)
(1.20649 -0.29889 0)
(1.21396 -0.355832 0)
(1.21644 -0.421497 0)
(1.21273 -0.496998 0)
(1.20115 -0.585689 0)
(1.1757 -0.686723 0)
(1.13253 -0.779689 0)
(1.06689 -0.842795 0)
(0.98014 -0.9589 0)
(0.797968 -1.14241 0)
(1.02135 -0.00233754 0)
(1.02294 -0.00762817 0)
(1.02579 -0.0120803 0)
(1.02966 -0.0170363 0)
(1.03475 -0.0217318 0)
(1.04071 -0.0268656 0)
(1.04768 -0.0322525 0)
(1.05554 -0.0381889 0)
(1.06434 -0.0447847 0)
(1.07412 -0.0523138 0)
(1.08499 -0.0610995 0)
(1.09704 -0.071592 0)
(1.11031 -0.0843417 0)
(1.12473 -0.0999895 0)
(1.14017 -0.119232 0)
(1.15646 -0.142789 0)
(1.17342 -0.171421 0)
(1.19053 -0.205945 0)
(1.20682 -0.247121 0)
(1.22134 -0.295897 0)
(1.23363 -0.353541 0)
(1.2424 -0.420905 0)
(1.24564 -0.498749 0)
(1.24427 -0.590952 0)
(1.23565 -0.70025 0)
(1.19612 -0.81844 0)
(1.12651 -0.990496 0)
(1.04862 -1.28806 0)
(0.73606 -1.38827 0)
(0.99839 -0.00232519 0)
(0.998516 -0.00221746 0)
(0.998561 -0.00210897 0)
(0.998532 -0.00199911 0)
(0.998428 -0.00188733 0)
(0.998242 -0.00177287 0)
(0.997962 -0.00165511 0)
(0.997569 -0.00153372 0)
(0.997041 -0.00140886 0)
(0.996355 -0.00128142 0)
(0.995496 -0.00115329 0)
(0.994456 -0.00102751 0)
(0.993244 -0.000908355 0)
(0.991891 -0.000801053 0)
(0.990456 -0.000711296 0)
(0.989021 -0.000644362 0)
(0.987689 -0.000604055 0)
(0.986576 -0.00059162 0)
(0.985792 -0.000604919 0)
(0.998636 -0.00934129 0)
(0.998515 -0.00928204 0)
(0.998451 -0.00922221 0)
(0.998436 -0.00916331 0)
(0.998468 -0.00910494 0)
(0.998556 -0.00904669 0)
(0.998716 -0.00898793 0)
(0.998976 -0.00892748 0)
(0.999371 -0.00886332 0)
(0.999942 -0.00879226 0)
(1.00073 -0.00870956 0)
(1.00178 -0.00860852 0)
(1.00311 -0.00848046 0)
(1.0047 -0.00831503 0)
(1.0065 -0.00810112 0)
(1.00841 -0.00782857 0)
(1.01029 -0.00749027 0)
(1.01196 -0.0070846 0)
(1.01322 -0.00661735 0)
(0.994522 -0.0121288 0)
(0.994614 -0.0117163 0)
(0.994634 -0.0112923 0)
(0.994585 -0.0108567 0)
(0.994464 -0.0104106 0)
(0.99426 -0.00995468 0)
(0.993954 -0.00948993 0)
(0.993516 -0.00901796 0)
(0.992909 -0.00854135 0)
(0.992087 -0.00806406 0)
(0.991002 -0.00759193 0)
(0.989611 -0.00713312 0)
(0.987886 -0.00669827 0)
(0.98583 -0.00630032 0)
(0.983496 -0.00595342 0)
(0.980995 -0.00567116 0)
(0.978502 -0.00546392 0)
(0.976247 -0.00533594 0)
(0.974482 -0.00528282 0)
(0.990047 -0.0185201 0)
(0.989677 -0.0182168 0)
(0.989367 -0.0179066 0)
(0.989105 -0.0175927 0)
(0.988894 -0.0172753 0)
(0.988744 -0.0169551 0)
(0.988681 -0.0166334 0)
(0.988742 -0.016311 0)
(0.988981 -0.0159885 0)
(0.989464 -0.0156656 0)
(0.990269 -0.0153403 0)
(0.991469 -0.015008 0)
(0.993123 -0.0146609 0)
(0.995253 -0.0142871 0)
(0.997816 -0.0138714 0)
(1.00069 -0.0133967 0)
(1.00366 -0.012847 0)
(1.00644 -0.0122111 0)
(1.00869 -0.0114868 0)
(0.984467 -0.0217535 0)
(0.984374 -0.0210952 0)
(0.984234 -0.0204222 0)
(0.984053 -0.019735 0)
(0.983833 -0.0190354 0)
(0.983566 -0.0183239 0)
(0.983237 -0.0176007 0)
(0.982817 -0.0168656 0)
(0.982265 -0.0161186 0)
(0.981521 -0.0153597 0)
(0.980507 -0.0145899 0)
(0.979137 -0.0138121 0)
(0.977324 -0.013032 0)
(0.975008 -0.0122587 0)
(0.972184 -0.0115049 0)
(0.968939 -0.0107856 0)
(0.965468 -0.0101154 0)
(0.962081 -0.00950482 0)
(0.959168 -0.0089563 0)
(0.977929 -0.0267218 0)
(0.977248 -0.026173 0)
(0.976638 -0.025605 0)
(0.976084 -0.025021 0)
(0.975581 -0.0244203 0)
(0.975135 -0.0238028 0)
(0.974763 -0.0231692 0)
(0.974495 -0.0225202 0)
(0.974379 -0.021857 0)
(0.974483 -0.0211805 0)
(0.974893 -0.0204913 0)
(0.975709 -0.0197883 0)
(0.977029 -0.0190684 0)
(0.978923 -0.0183254 0)
(0.981398 -0.0175495 0)
(0.984361 -0.016729 0)
(0.987592 -0.0158525 0)
(0.990751 -0.014913 0)
(0.993417 -0.0139116 0)
(0.9701 -0.0332103 0)
(0.969645 -0.0321669 0)
(0.969156 -0.0310968 0)
(0.968645 -0.0300024 0)
(0.968119 -0.0288883 0)
(0.967577 -0.0277583 0)
(0.967011 -0.026616 0)
(0.9664 -0.0254651 0)
(0.96571 -0.0243093 0)
(0.964884 -0.0231524 0)
(0.963843 -0.0219984 0)
(0.962484 -0.0208518 0)
(0.960692 -0.0197185 0)
(0.958369 -0.0186061 0)
(0.955468 -0.0175238 0)
(0.952044 -0.0164811 0)
(0.948296 -0.0154848 0)
(0.944578 -0.0145355 0)
(0.941356 -0.0136241 0)
(0.961808 -0.0400736 0)
(0.960627 -0.0392511 0)
(0.959545 -0.0383966 0)
(0.95855 -0.0375144 0)
(0.957642 -0.0366031 0)
(0.956829 -0.0356631 0)
(0.956127 -0.0346951 0)
(0.955564 -0.0336999 0)
(0.955182 -0.032678 0)
(0.95504 -0.0316298 0)
(0.955218 -0.0305543 0)
(0.955813 -0.0294492 0)
(0.956927 -0.0283096 0)
(0.958636 -0.0271278 0)
(0.960956 -0.0258931 0)
(0.963788 -0.0245937 0)
(0.966882 -0.0232201 0)
(0.969842 -0.02177 0)
(0.972178 -0.0202524 0)
(0.952062 -0.0523588 0)
(0.95111 -0.0507911 0)
(0.95014 -0.0491875 0)
(0.949173 -0.0475508 0)
(0.948225 -0.0458855 0)
(0.9473 -0.0441945 0)
(0.946396 -0.04248 0)
(0.945496 -0.0407439 0)
(0.944566 -0.0389882 0)
(0.943548 -0.0372146 0)
(0.942356 -0.0354254 0)
(0.940877 -0.0336238 0)
(0.938977 -0.0318151 0)
(0.936531 -0.0300073 0)
(0.933469 -0.028211 0)
(0.92984 -0.0264383 0)
(0.925863 -0.0246986 0)
(0.921948 -0.0229934 0)
(0.918637 -0.0213112 0)
(0.94175 -0.0614383 0)
(0.939963 -0.0602711 0)
(0.938294 -0.0590377 0)
(0.93673 -0.0577427 0)
(0.935268 -0.0563846 0)
(0.933913 -0.054963 0)
(0.932677 -0.0534782 0)
(0.93158 -0.0519309 0)
(0.930655 -0.0503219 0)
(0.929955 -0.048652 0)
(0.929552 -0.0469216 0)
(0.929544 -0.0451304 0)
(0.930039 -0.0432759 0)
(0.93113 -0.0413524 0)
(0.932844 -0.0393503 0)
(0.935088 -0.0372573 0)
(0.937587 -0.0350617 0)
(0.939896 -0.0327596 0)
(0.941468 -0.0303623 0)
(0.930729 -0.078359 0)
(0.928982 -0.0761663 0)
(0.927221 -0.0739158 0)
(0.925477 -0.0716103 0)
(0.923767 -0.0692517 0)
(0.922102 -0.0668397 0)
(0.920483 -0.0643732 0)
(0.9189 -0.0618512 0)
(0.917328 -0.0592727 0)
(0.915719 -0.0566374 0)
(0.913996 -0.0539453 0)
(0.91205 -0.0511986 0)
(0.909744 -0.048402 0)
(0.906937 -0.0455653 0)
(0.903537 -0.0427045 0)
(0.899572 -0.0398415 0)
(0.89527 -0.0370006 0)
(0.891085 -0.0342001 0)
(0.887631 -0.0314417 0)
(0.918465 -0.0898882 0)
(0.91577 -0.0881913 0)
(0.913201 -0.0863584 0)
(0.910742 -0.0843979 0)
(0.908385 -0.0823142 0)
(0.906129 -0.0801131 0)
(0.903985 -0.0778015 0)
(0.901967 -0.0753865 0)
(0.900105 -0.0728755 0)
(0.898444 -0.0702758 0)
(0.897051 -0.067595 0)
(0.896025 -0.0648396 0)
(0.895485 -0.0620141 0)
(0.89555 -0.0591182 0)
(0.896289 -0.0561434 0)
(0.897647 -0.0530711 0)
(0.899367 -0.0498748 0)
(0.900967 -0.0465295 0)
(0.901832 -0.0430279 0)
(0.905973 -0.110403 0)
(0.902939 -0.107443 0)
(0.899918 -0.104384 0)
(0.896943 -0.101234 0)
(0.894041 -0.0979899 0)
(0.891228 -0.0946485 0)
(0.888512 -0.0912061 0)
(0.885892 -0.0876595 0)
(0.883357 -0.0840069 0)
(0.880875 -0.0802476 0)
(0.878389 -0.0763821 0)
(0.875805 -0.0724125 0)
(0.872989 -0.0683442 0)
(0.869782 -0.0641891 0)
(0.866039 -0.0599698 0)
(0.86172 -0.0557248 0)
(0.856995 -0.0515066 0)
(0.852328 -0.0473719 0)
(0.848431 -0.0433588 0)
(0.891879 -0.126032 0)
(0.887752 -0.123467 0)
(0.883777 -0.120644 0)
(0.879952 -0.117587 0)
(0.876261 -0.114314 0)
(0.872708 -0.110852 0)
(0.869306 -0.107225 0)
(0.866068 -0.103456 0)
(0.86302 -0.0995683 0)
(0.8602 -0.0955852 0)
(0.857667 -0.0915287 0)
(0.855505 -0.0874202 0)
(0.853836 -0.0832786 0)
(0.852805 -0.0791163 0)
(0.852545 -0.0749323 0)
(0.853096 -0.0707028 0)
(0.854283 -0.0663755 0)
(0.855629 -0.0618776 0)
(0.856385 -0.0571473 0)
(0.877113 -0.150449 0)
(0.872121 -0.146393 0)
(0.867251 -0.142161 0)
(0.862508 -0.137755 0)
(0.85795 -0.133182 0)
(0.853601 -0.128432 0)
(0.849475 -0.123508 0)
(0.845587 -0.118414 0)
(0.841936 -0.113157 0)
(0.838508 -0.107746 0)
(0.835267 -0.102189 0)
(0.83214 -0.0964968 0)
(0.829003 -0.0906789 0)
(0.825673 -0.0847491 0)
(0.821927 -0.0787327 0)
(0.817574 -0.0726801 0)
(0.812606 -0.0666793 0)
(0.807389 -0.0608519 0)
(0.802756 -0.0553191 0)
(0.860747 -0.172231 0)
(0.854359 -0.168256 0)
(0.848167 -0.163768 0)
(0.842275 -0.158881 0)
(0.836653 -0.153615 0)
(0.831323 -0.148043 0)
(0.826316 -0.142217 0)
(0.821647 -0.136188 0)
(0.817344 -0.130012 0)
(0.813433 -0.123739 0)
(0.809951 -0.117422 0)
(0.806953 -0.111115 0)
(0.804531 -0.10487 0)
(0.80282 -0.0987349 0)
(0.802003 -0.0927446 0)
(0.802258 -0.0869025 0)
(0.803611 -0.0811536 0)
(0.805722 -0.0753697 0)
(0.807709 -0.0693712 0)
(0.842829 -0.202182 0)
(0.834717 -0.19633 0)
(0.827027 -0.190174 0)
(0.819641 -0.183584 0)
(0.812679 -0.176637 0)
(0.806204 -0.169332 0)
(0.800227 -0.161699 0)
(0.794799 -0.153789 0)
(0.789926 -0.145641 0)
(0.785617 -0.137308 0)
(0.78185 -0.128833 0)
(0.778575 -0.120259 0)
(0.775685 -0.111621 0)
(0.772992 -0.102947 0)
(0.770208 -0.0942663 0)
(0.766952 -0.0856264 0)
(0.762874 -0.0771317 0)
(0.757955 -0.0689726 0)
(0.752932 -0.0614388 0)
(0.823181 -0.23236 0)
(0.813015 -0.226194 0)
(0.803117 -0.21891 0)
(0.793829 -0.210914 0)
(0.785183 -0.202221 0)
(0.777188 -0.192947 0)
(0.769965 -0.183225 0)
(0.76352 -0.173139 0)
(0.757909 -0.162819 0)
(0.753142 -0.152375 0)
(0.749238 -0.141933 0)
(0.746204 -0.131619 0)
(0.744066 -0.121564 0)
(0.742891 -0.1119 0)
(0.742822 -0.102754 0)
(0.744113 -0.0942315 0)
(0.747069 -0.0863632 0)
(0.751772 -0.0790538 0)
(0.757546 -0.0719542 0)
(0.801414 -0.271112 0)
(0.788044 -0.262354 0)
(0.775518 -0.252907 0)
(0.763774 -0.242474 0)
(0.752845 -0.231136 0)
(0.743021 -0.219067 0)
(0.73427 -0.206311 0)
(0.726734 -0.193063 0)
(0.720433 -0.179447 0)
(0.715408 -0.165624 0)
(0.711643 -0.151741 0)
(0.709102 -0.137933 0)
(0.707681 -0.124319 0)
(0.707203 -0.110993 0)
(0.707352 -0.098023 0)
(0.707622 -0.0854535 0)
(0.707269 -0.0733774 0)
(0.705517 -0.0619481 0)
(0.702129 -0.0516485 0)
(0.777921 -0.312854 0)
(0.760826 -0.303261 0)
(0.744641 -0.291685 0)
(0.729359 -0.278423 0)
(0.715621 -0.263943 0)
(0.703231 -0.248193 0)
(0.692541 -0.231574 0)
(0.683553 -0.214237 0)
(0.676382 -0.196454 0)
(0.671032 -0.178478 0)
(0.66752 -0.160567 0)
(0.665798 -0.142994 0)
(0.665819 -0.126038 0)
(0.667525 -0.109991 0)
(0.670912 -0.095154 0)
(0.676112 -0.0818494 0)
(0.683537 -0.0703038 0)
(0.693755 -0.0607635 0)
(0.707346 -0.0528781 0)
(0.751663 -0.364738 0)
(0.72978 -0.352223 0)
(0.708437 -0.337093 0)
(0.689242 -0.320363 0)
(0.671526 -0.30138 0)
(0.656136 -0.280985 0)
(0.642978 -0.259241 0)
(0.63232 -0.236561 0)
(0.624179 -0.213291 0)
(0.618648 -0.18975 0)
(0.615684 -0.166286 0)
(0.615265 -0.143218 0)
(0.617273 -0.120849 0)
(0.621529 -0.0994494 0)
(0.62771 -0.0792431 0)
(0.635275 -0.0603227 0)
(0.643201 -0.0429054 0)
(0.650207 -0.0268717 0)
(0.653363 -0.0127129 0)
(0.725733 -0.423543 0)
(0.695518 -0.407946 0)
(0.668715 -0.390158 0)
(0.643257 -0.368189 0)
(0.621018 -0.34405 0)
(0.60164 -0.317573 0)
(0.585613 -0.28941 0)
(0.572917 -0.260115 0)
(0.56374 -0.230045 0)
(0.557992 -0.199719 0)
(0.55574 -0.169542 0)
(0.556888 -0.139967 0)
(0.561375 -0.111466 0)
(0.569074 -0.0845641 0)
(0.57986 -0.0598347 0)
(0.593627 -0.0380943 0)
(0.610805 -0.0197561 0)
(0.631313 -0.00613951 0)
(0.658892 0.00241837 0)
(0.693683 -0.492811 0)
(0.657413 -0.4757 0)
(0.621407 -0.45119 0)
(0.589702 -0.423551 0)
(0.561673 -0.39219 0)
(0.53806 -0.357971 0)
(0.51879 -0.32205 0)
(0.504151 -0.28463 0)
(0.493827 -0.246557 0)