/*--------------------------------*- C++ -*----------------------------------*\
  =========                 |
  \\      /  F ield         | OpenFOAM: The Open Source CFD Toolbox
   \\    /   O peration     | Website:  https://openfoam.org
    \\  /    A nd           | Version:  10
     \\/     M anipulation  |
\*---------------------------------------------------------------------------*/
FoamFile
{
    format      ascii;
    class       volVectorField;
    location    "0";
    object      U;
}
// * * * * * * * * * * * * * * * * * * * * * * * * * * * * * * * * * * * * * //

dimensions      [0 1 -1 0 0 0 0];

internalField   nonuniform List<vector> 
18483
(
(0.999992 -0.000205575 0)
(0.999993 -0.000728489 0)
(0.999994 -0.00114975 0)
(0.999996 -0.00159671 0)
(0.999999 -0.00201163 0)
(1 -0.00240386 0)
(1.00001 -0.00275778 0)
(1.00001 -0.00306349 0)
(1.00002 -0.00331238 0)
(1.00003 -0.00349921 0)
(1.00004 -0.00362394 0)
(1.00007 -0.00369472 0)
(1.0001 -0.00372669 0)
(1.00016 -0.00376514 0)
(1.00023 -0.00386154 0)
(1.00031 -0.0040395 0)
(1.00035 -0.00425494 0)
(1.00011 -0.0044228 0)
(0.998897 -0.00449398 0)
(0.995769 -0.00448534 0)
(0.990974 -0.00449054 0)
(0.987039 -0.00461343 0)
(0.986435 -0.00476651 0)
(0.988728 -0.00478059 0)
(0.991866 -0.00464938 0)
(0.994537 -0.00444945 0)
(0.996436 -0.00423804 0)
(0.997689 -0.00404389 0)
(0.998494 -0.00387662 0)
(1.00064 -0.000639809 0)
(1.00065 -0.00225056 0)
(1.0007 -0.00353829 0)
(1.00074 -0.00489616 0)
(1.00078 -0.00613816 0)
(1.0008 -0.00729972 0)
(1.00078 -0.008333 0)
(1.00073 -0.00921136 0)
(1.00064 -0.00990945 0)
(1.00051 -0.0104144 0)
(1.00034 -0.0107281 0)
(1.00015 -0.0108797 0)
(0.999954 -0.0108936 0)
(0.999786 -0.0107001 0)
(0.999642 -0.0101961 0)
(0.999464 -0.00931991 0)
(0.999213 -0.00813691 0)
(0.99913 -0.00685537 0)
(1.00012 -0.00566737 0)
(1.00359 -0.00472631 0)
(1.00945 -0.00407785 0)
(1.01432 -0.00354759 0)
(1.01454 -0.00310344 0)
(1.01076 -0.00289624 0)
(1.00613 -0.002878 0)
(1.0025 -0.00290586 0)
(1.00011 -0.00290795 0)
(0.998637 -0.00286681 0)
(0.997745 -0.00278989 0)
(1.00191 -0.00104518 0)
(1.00196 -0.00365591 0)
(1.00209 -0.00574611 0)
(1.0022 -0.00796027 0)
(1.00229 -0.00998547 0)
(1.00232 -0.0118928 0)
(1.00227 -0.0136035 0)
(1.00211 -0.0150803 0)
(1.00183 -0.0162842 0)
(1.00144 -0.0172009 0)
(1.00097 -0.0178267 0)
(1.00045 -0.0181648 0)
(0.999949 -0.0182415 0)
(0.999464 -0.018114 0)
(0.998923 -0.017961 0)
(0.998243 -0.018057 0)
(0.99741 -0.0184776 0)
(0.996305 -0.018997 0)
(0.994304 -0.0193035 0)
(0.990405 -0.0191127 0)
(0.984845 -0.0182896 0)
(0.980649 -0.0171116 0)
(0.980943 -0.0159555 0)
(0.984724 -0.0148689 0)
(0.98876 -0.0138532 0)
(0.991512 -0.0129944 0)
(0.993067 -0.0123105 0)
(0.993868 -0.0117749 0)
(0.994254 -0.0113553 0)
(1.00348 -0.00140021 0)
(1.00358 -0.00487843 0)
(1.0038 -0.00767744 0)
(1.00401 -0.0106653 0)
(1.00418 -0.0134159 0)
(1.00425 -0.0160404 0)
(1.00417 -0.0184286 0)
(1.0039 -0.0205314 0)
(1.00344 -0.0222828 0)
(1.0028 -0.0236403 0)
(1.00203 -0.0245741 0)
(1.00117 -0.0250725 0)
(1.00027 -0.0251988 0)
(0.999354 -0.0250713 0)
(0.998435 -0.0247528 0)
(0.997575 -0.0240507 0)
(0.996778 -0.0227183 0)
(0.99604 -0.0209102 0)
(0.995822 -0.0190143 0)
(0.997433 -0.0173681 0)
(1.00154 -0.0162225 0)
(1.00549 -0.0155157 0)
(1.0054 -0.0149277 0)
(1.00153 -0.0144007 0)
(0.997195 -0.0139884 0)
(0.994154 -0.0136053 0)
(0.992328 -0.0132071 0)
(0.991251 -0.0127999 0)
(0.990591 -0.0123969 0)
(1.00514 -0.00170491 0)
(1.00531 -0.00592369 0)
(1.00564 -0.00934064 0)
(1.00596 -0.0130183 0)
(1.00625 -0.0164356 0)
(1.00639 -0.0197444 0)
(1.00632 -0.0228055 0)
(1.00597 -0.0255577 0)
(1.00532 -0.0279049 0)
(1.00438 -0.0297792 0)
(1.00318 -0.0311459 0)
(1.00176 -0.0320135 0)
(1.00019 -0.0324389 0)
(0.998574 -0.032477 0)
(0.997017 -0.032177 0)
(0.995523 -0.0317427 0)
(0.993932 -0.0315509 0)
(0.991963 -0.0317636 0)
(0.989071 -0.0321002 0)
(0.984471 -0.0320865 0)
(0.978305 -0.031368 0)
(0.973249 -0.0299256 0)
(0.972698 -0.0282314 0)
(0.976076 -0.0266367 0)
(0.979808 -0.0251014 0)
(0.982118 -0.0237055 0)
(0.983237 -0.0225146 0)
(0.983689 -0.0215156 0)
(0.983808 -0.0206863 0)
(1.00686 -0.00196616 0)
(1.00711 -0.00681721 0)
(1.00757 -0.0107736 0)
(1.00804 -0.015067 0)
(1.00848 -0.0190989 0)
(1.00874 -0.0230642 0)
(1.00872 -0.0268008 0)
(1.00833 -0.0302421 0)
(1.00752 -0.0332705 0)
(1.00629 -0.0357996 0)
(1.00466 -0.0377709 0)
(1.00274 -0.0391539 0)
(1.00065 -0.0399281 0)
(0.998544 -0.0400762 0)
(0.996504 -0.0396458 0)
(0.994566 -0.0386878 0)
(0.992759 -0.0370969 0)
(0.9911 -0.0347771 0)
(0.989791 -0.0320414 0)
(0.989673 -0.0295658 0)
(0.991592 -0.0278716 0)
(0.994002 -0.027086 0)
(0.993358 -0.0267054 0)
(0.989128 -0.0261764 0)
(0.984442 -0.0256019 0)
(0.981298 -0.0250382 0)
(0.979499 -0.024432 0)
(0.978461 -0.0238109 0)
(0.977823 -0.0231983 0)
(1.00865 -0.00218753 0)
(1.00899 -0.00757253 0)
(1.00958 -0.0119961 0)
(1.01024 -0.0168352 0)
(1.01087 -0.0214309 0)
(1.01129 -0.0260229 0)
(1.01139 -0.0304335 0)
(1.01104 -0.034596 0)
(1.01016 -0.0383707 0)
(1.00873 -0.0416395 0)
(1.00679 -0.0442897 0)
(1.00443 -0.046232 0)
(1.00179 -0.0474253 0)
(0.99895 -0.0478783 0)
(0.99597 -0.0476578 0)
(0.992911 -0.0469344 0)
(0.989798 -0.0460507 0)
(0.986595 -0.0453963 0)
(0.983177 -0.045098 0)
(0.97907 -0.0448303 0)
(0.973716 -0.044036 0)
(0.968189 -0.0423774 0)
(0.965514 -0.0401669 0)
(0.966652 -0.0380703 0)
(0.968882 -0.0361208 0)
(0.970097 -0.0342334 0)
(0.970388 -0.0325403 0)
(0.970251 -0.031061 0)
(0.969949 -0.0297864 0)
(1.01044 -0.00236962 0)
(1.01088 -0.0081928 0)
(1.01163 -0.0130111 0)
(1.01249 -0.0183232 0)
(1.01335 -0.0234253 0)
(1.014 -0.0286032 0)
(1.01429 -0.0336707 0)
(1.01406 -0.0385669 0)
(1.01319 -0.0431332 0)
(1.01162 -0.0472259 0)
(1.00936 -0.0507015 0)
(1.00647 -0.05345 0)
(1.00305 -0.0554243 0)
(0.999248 -0.0566249 0)
(0.995222 -0.0570632 0)
(0.991151 -0.0567516 0)
(0.98728 -0.055661 0)
(0.9839 -0.0536477 0)
(0.981267 -0.0507315 0)
(0.979752 -0.0474476 0)
(0.979874 -0.0445617 0)
(0.98104 -0.04263 0)
(0.980408 -0.0415334 0)
(0.976232 -0.0404866 0)
(0.97081 -0.0393512 0)
(0.966776 -0.038352 0)
(0.964267 -0.0373775 0)
(0.962639 -0.0364062 0)
(0.961506 -0.0354632 0)
(1.0122 -0.00251364 0)
(1.01274 -0.00868239 0)
(1.01366 -0.0138227 0)
(1.01475 -0.019532 0)
(1.01587 -0.0250757 0)
(1.01679 -0.0307858 0)
(1.01733 -0.036476 0)
(1.01729 -0.0420988 0)
(1.01651 -0.0474897 0)
(1.01489 -0.0524951 0)
(1.0124 -0.056951 0)
(1.00909 -0.0607078 0)
(1.0051 -0.06364 0)
(1.00062 -0.0656515 0)
(0.995848 -0.066686 0)
(0.99092 -0.0667366 0)
(0.985972 -0.0660035 0)
(0.981131 -0.0650605 0)
(0.97644 -0.0644247 0)
(0.971632 -0.063968 0)
(0.966045 -0.0631086 0)
(0.959727 -0.0612741 0)
(0.954766 -0.0584423 0)
(0.953318 -0.0554924 0)
(0.954049 -0.0528481 0)
(0.954358 -0.0502523 0)
(0.953824 -0.0478421 0)
(0.952985 -0.0457162 0)
(0.952105 -0.0438593 0)
(1.01387 -0.0026231 0)
(1.01453 -0.00905278 0)
(1.01563 -0.0144459 0)
(1.01695 -0.0204775 0)
(1.01835 -0.0263935 0)
(1.01958 -0.0325711 0)
(1.02042 -0.0388304 0)
(1.02066 -0.0451445 0)
(1.02009 -0.0513521 0)
(1.01858 -0.0572945 0)
(1.01606 -0.0627798 0)
(1.01256 -0.0676094 0)
(1.00818 -0.0716026 0)
(1.00306 -0.0746341 0)
(0.997342 -0.0766766 0)
(0.991186 -0.0777792 0)
(0.984871 -0.0779902 0)
(0.97888 -0.0771889 0)
(0.973745 -0.0750693 0)
(0.969776 -0.0717143 0)
(0.967313 -0.0679095 0)
(0.966474 -0.0646864 0)
(0.965386 -0.062595 0)
(0.961324 -0.0609037 0)
(0.955019 -0.0590074 0)
(0.949581 -0.0572814 0)
(0.945949 -0.0557165 0)
(0.943419 -0.054181 0)
(0.941523 -0.052716 0)
(1.01545 -0.00270337 0)
(1.01621 -0.00932174 0)
(1.01748 -0.0149062 0)
(1.01905 -0.0211905 0)
(1.02074 -0.0274091 0)
(1.02231 -0.0339818 0)
(1.02352 -0.0407407 0)
(1.02411 -0.0476832 0)
(1.02385 -0.0546586 0)
(1.02258 -0.0615115 0)
(1.02016 -0.0680385 0)
(1.01656 -0.0740252 0)
(1.01182 -0.0792734 0)
(1.00605 -0.0836157 0)
(0.999455 -0.0869244 0)
(0.99233 -0.0890794 0)
(0.985039 -0.0899691 0)
(0.977904 -0.089754 0)
(0.970999 -0.0890982 0)
(0.964133 -0.088616 0)
(0.956923 -0.0880504 0)
(0.949007 -0.0864918 0)
(0.941397 -0.0834173 0)
(0.936713 -0.0796626 0)
(0.935462 -0.0762443 0)
(0.934883 -0.0729465 0)
(0.933474 -0.0697328 0)
(0.931762 -0.0668633 0)
(0.930133 -0.0643306 0)
(1.01691 -0.00276052 0)
(1.01778 -0.00950969 0)
(1.01922 -0.0152337 0)
(1.02102 -0.0217096 0)
(1.02302 -0.028165 0)
(1.02494 -0.0350599 0)
(1.02654 -0.0422418 0)
(1.02754 -0.0497359 0)
(1.02768 -0.0574112 0)
(1.02673 -0.0651296 0)
(1.02452 -0.0726964 0)
(1.02097 -0.0798922 0)
(1.01608 -0.0864802 0)
(1.00997 -0.0922083 0)
(1.00281 -0.0968444 0)
(0.994859 -0.100245 0)
(0.986351 -0.102389 0)
(0.977638 -0.103319 0)
(0.969284 -0.102851 0)
(0.961932 -0.1006 0)
(0.956097 -0.0967976 0)
(0.952215 -0.0926936 0)
(0.949486 -0.0896232 0)
(0.94503 -0.087377 0)
(0.937635 -0.0848208 0)
(0.930113 -0.082201 0)
(0.924745 -0.0798911 0)
(0.920966 -0.0776321 0)
(0.918046 -0.0754582 0)
(1.01824 -0.00280023 0)
(1.01921 -0.00963598 0)
(1.02082 -0.0154581 0)
(1.02286 -0.0220746 0)
(1.02516 -0.0287084 0)
(1.02744 -0.0358571 0)
(1.02945 -0.0433858 0)
(1.03089 -0.0513491 0)
(1.03148 -0.059642 0)
(1.03097 -0.0681531 0)
(1.02913 -0.0767003 0)
(1.02586 -0.0850596 0)
(1.0211 -0.0929675 0)
(1.01489 -0.100142 0)
(1.0073 -0.106332 0)
(0.998502 -0.111356 0)
(0.98884 -0.115037 0)
(0.978829 -0.117166 0)
(0.968919 -0.117856 0)
(0.959142 -0.117893 0)
(0.949226 -0.117901 0)
(0.938785 -0.117242 0)
(0.92798 -0.11469 0)
(0.919117 -0.110425 0)
(0.914643 -0.106083 0)
(0.912699 -0.102069 0)
(0.910217 -0.0979567 0)
(0.90725 -0.0941532 0)
(0.904535 -0.0907908 0)
(1.01946 -0.00282719 0)
(1.02052 -0.00971675 0)
(1.02229 -0.0156051 0)
(1.02455 -0.0223209 0)
(1.02714 -0.0290834 0)
(1.02979 -0.0364249 0)
(1.03221 -0.044228 0)
(1.03412 -0.0525758 0)
(1.03523 -0.0613926 0)
(1.03524 -0.0705969 0)
(1.03391 -0.0800269 0)
(1.03107 -0.0894728 0)
(1.02659 -0.0986851 0)
(1.02041 -0.107388 0)
(1.01255 -0.115284 0)
(1.00319 -0.122068 0)
(0.992683 -0.127447 0)
(0.981426 -0.131219 0)
(0.969853 -0.133287 0)
(0.95861 -0.133366 0)
(0.94857 -0.131089 0)
(0.940496 -0.127024 0)
(0.934501 -0.123019 0)
(0.92855 -0.120226 0)
(0.919777 -0.117398 0)
(0.90937 -0.113901 0)
(0.901144 -0.110649 0)
(0.895485 -0.107533 0)
(0.891108 -0.104409 0)
(1.02056 -0.00284499 0)
(1.02171 -0.00976448 0)
(1.02363 -0.0156949 0)
(1.02611 -0.0224775 0)
(1.02897 -0.0293275 0)
(1.03196 -0.0368094 0)
(1.0348 -0.044821 0)
(1.0372 -0.0534728 0)
(1.03884 -0.0627194 0)
(1.03942 -0.0725143 0)
(1.03866 -0.0827269 0)
(1.03634 -0.0931792 0)
(1.03227 -0.103646 0)
(1.02635 -0.113852 0)
(1.01856 -0.123455 0)
(1.00898 -0.132102 0)
(0.997812 -0.139478 0)
(0.985418 -0.145287 0)
(0.972343 -0.149249 0)
(0.959066 -0.151543 0)
(0.945631 -0.153036 0)
(0.931704 -0.154026 0)
(0.916908 -0.153191 0)
(0.902706 -0.149302 0)
(0.89297 -0.143899 0)
(0.888299 -0.138857 0)
(0.884381 -0.133662 0)
(0.879567 -0.128463 0)
(0.875142 -0.123843 0)
(1.02156 -0.00285628 0)
(1.02279 -0.00978849 0)
(1.02484 -0.0157429 0)
(1.02752 -0.0225673 0)
(1.03065 -0.0294718 0)
(1.03397 -0.0370506 0)
(1.03721 -0.0452142 0)
(1.04008 -0.0540986 0)
(1.04225 -0.0636903 0)
(1.04342 -0.0739788 0)
(1.04328 -0.0848703 0)
(1.04158 -0.0962195 0)
(1.03811 -0.107824 0)
(1.03272 -0.119426 0)
(1.0253 -0.130704 0)
(1.01576 -0.14131 0)
(1.00424 -0.150872 0)
(0.991072 -0.158963 0)
(0.976758 -0.165167 0)
(0.961857 -0.169133 0)
(0.947206 -0.170281 0)
(0.933831 -0.168211 0)
(0.922625 -0.164216 0)
(0.913292 -0.160897 0)
(0.902521 -0.158284 0)
(0.888474 -0.15437 0)
(0.875446 -0.149903 0)
(0.86644 -0.145698 0)
(0.859707 -0.141249 0)
(1.02247 -0.00286292 0)
(1.02377 -0.0097955 0)
(1.02595 -0.0157606 0)
(1.02881 -0.0226078 0)
(1.03218 -0.029541 0)
(1.03581 -0.037182 0)
(1.03943 -0.0454511 0)
(1.04274 -0.054507 0)
(1.04545 -0.0643673 0)
(1.04722 -0.0750553 0)
(1.04776 -0.0865123 0)
(1.04677 -0.0986261 0)
(1.04404 -0.111227 0)
(1.03935 -0.124105 0)
(1.03249 -0.136988 0)
(1.0233 -0.149532 0)
(1.01181 -0.161326 0)
(0.998245 -0.171901 0)
(0.982982 -0.180775 0)
(0.966497 -0.187617 0)
(0.94914 -0.192743 0)
(0.930778 -0.196922 0)
(0.910992 -0.199563 0)
(0.890278 -0.198229 0)
(0.872568 -0.192675 0)
(0.862072 -0.186237 0)
(0.855549 -0.179851 0)
(0.847974 -0.172717 0)
(0.840495 -0.166008 0)
(1.0233 -0.0028662 0)
(1.02466 -0.00979026 0)
(1.02696 -0.0157563 0)
(1.02998 -0.0226122 0)
(1.03358 -0.0295546 0)
(1.0375 -0.0372309 0)
(1.04146 -0.0455673 0)
(1.04521 -0.0547427 0)
(1.04844 -0.0648034 0)
(1.05081 -0.0758027 0)
(1.05204 -0.0877161 0)
(1.05181 -0.100469 0)
(1.04987 -0.113933 0)
(1.04596 -0.127949 0)
(1.03984 -0.142295 0)
(1.0313 -0.156658 0)
(1.02022 -0.170652 0)
(1.00667 -0.183833 0)
(0.990968 -0.195677 0)
(0.973508 -0.205591 0)
(0.954825 -0.212724 0)
(0.93583 -0.215787 0)
(0.917805 -0.214433 0)
(0.902285 -0.211366 0)
(0.88781 -0.209574 0)
(0.869494 -0.206827 0)
(0.848972 -0.201453 0)
(0.833315 -0.195798 0)
(0.822259 -0.189711 0)
(1.02405 -0.00286695 0)
(1.02547 -0.00977612 0)
(1.02788 -0.0157362 0)
(1.03105 -0.0225901 0)
(1.03486 -0.0295276 0)
(1.03903 -0.0372187 0)
(1.04333 -0.0455912 0)
(1.04748 -0.0548431 0)
(1.05121 -0.0650462 0)
(1.05417 -0.0762815 0)
(1.05606 -0.0885577 0)
(1.05657 -0.101838 0)
(1.05544 -0.116032 0)
(1.05239 -0.131022 0)
(1.04719 -0.14664 0)
(1.03955 -0.162642 0)
(1.02923 -0.178711 0)
(1.01619 -0.194449 0)
(1.00064 -0.209353 0)
(0.98274 -0.222806 0)
(0.96252 -0.234286 0)
(0.939823 -0.244147 0)
(0.914483 -0.252904 0)
(0.886616 -0.258237 0)
(0.858378 -0.256226 0)
(0.836709 -0.249019 0)
(0.824021 -0.241475 0)
(0.812319 -0.232621 0)
(0.79932 -0.22286 0)
(1.02474 -0.0028658 0)
(1.02621 -0.00975557 0)
(1.02872 -0.0157049 0)
(1.03202 -0.0225489 0)
(1.03602 -0.0294714 0)
(1.04043 -0.0371618 0)
(1.04503 -0.0455463 0)
(1.04956 -0.0548408 0)
(1.05375 -0.06514 0)
(1.05726 -0.0765496 0)
(1.05978 -0.089109 0)
(1.06103 -0.102814 0)
(1.06072 -0.117602 0)
(1.05862 -0.133394 0)
(1.05444 -0.150083 0)
(1.04787 -0.167507 0)
(1.03859 -0.18544 0)
(1.0265 -0.203582 0)
(1.01164 -0.221549 0)
(0.993979 -0.238788 0)
(0.973337 -0.254306 0)
(0.949962 -0.266315 0)
(0.925141 -0.272529 0)
(0.901086 -0.273136 0)
(0.879692 -0.27321 0)
(0.856442 -0.274417 0)
(0.826413 -0.271064 0)
(0.798182 -0.264089 0)
(0.778513 -0.256515 0)
(1.02536 -0.0028632 0)
(1.02687 -0.00973051 0)
(1.02947 -0.015666 0)
(1.03289 -0.0224944 0)
(1.03707 -0.0293948 0)
(1.04169 -0.0370734 0)
(1.04657 -0.0454517 0)
(1.05145 -0.0547633 0)
(1.05606 -0.0651217 0)
(1.06009 -0.0766544 0)
(1.06323 -0.0894263 0)
(1.06519 -0.10346 0)
(1.06572 -0.118719 0)
(1.06456 -0.135157 0)
(1.06144 -0.152725 0)
(1.05603 -0.171334 0)
(1.04801 -0.190867 0)
(1.03721 -0.211163 0)
(1.02358 -0.231988 0)
(1.00692 -0.252889 0)
(0.986572 -0.272974 0)
(0.961761 -0.291505 0)
(0.932116 -0.309292 0)
(0.89777 -0.326176 0)
(0.858859 -0.33584 0)
(0.820407 -0.333017 0)
(0.793248 -0.324849 0)
(0.774502 -0.315956 0)
(0.753052 -0.303282 0)
(1.02591 -0.00285955 0)
(1.02747 -0.0097025 0)
(1.03015 -0.0156222 0)
(1.03368 -0.0224313 0)
(1.03801 -0.029305 0)
(1.04282 -0.036964 0)
(1.04795 -0.045323 0)
(1.05316 -0.0546322 0)
(1.05816 -0.0650205 0)
(1.06267 -0.0766334 0)
(1.0664 -0.0895575 0)
(1.06906 -0.10384 0)
(1.07038 -0.119467 0)
(1.07013 -0.136417 0)
(1.06806 -0.154684 0)
(1.06384 -0.174242 0)
(1.05721 -0.19508 0)
(1.04798 -0.217208 0)
(1.03605 -0.240566 0)
(1.02101 -0.264921 0)
(1.00191 -0.289625 0)
(0.977809 -0.313185 0)
(0.949134 -0.332706 0)
(0.917705 -0.344401 0)
(0.886115 -0.349597 0)
(0.855377 -0.357176 0)
(0.816721 -0.363639 0)
(0.769435 -0.359128 0)
(0.731456 -0.35054 0)
(1.02641 -0.00285515 0)
(1.02801 -0.00967279 0)
(1.03076 -0.0155758 0)
(1.03438 -0.0223631 0)
(1.03886 -0.0292076 0)
(1.04384 -0.0368416 0)
(1.0492 -0.045172 0)
(1.05469 -0.0544645 0)
(1.06006 -0.064859 0)
(1.06503 -0.076518 0)
(1.0693 -0.0895465 0)
(1.0726 -0.104014 0)
(1.07467 -0.119923 0)
(1.07528 -0.13727 0)
(1.07421 -0.156073 0)
(1.07121 -0.176357 0)
(1.06602 -0.198208 0)
(1.05854 -0.221806 0)
(1.04865 -0.247295 0)
(1.03577 -0.274643 0)
(1.01881 -0.303454 0)
(0.996253 -0.332703 0)
(0.966617 -0.361935 0)
(0.929414 -0.3932 0)
(0.883763 -0.424734 0)
(0.828392 -0.441713 0)
(0.774724 -0.438219 0)
(0.738235 -0.430708 0)
(0.706163 -0.419162 0)
(1.02686 -0.00285027 0)
(1.02849 -0.0096424 0)
(1.0313 -0.0155284 0)
(1.035 -0.0222927 0)
(1.03961 -0.0291068 0)
(1.04474 -0.0367128 0)
(1.05031 -0.0450081 0)
(1.05606 -0.0542738 0)
(1.06177 -0.0646569 0)
(1.06715 -0.0763359 0)
(1.07192 -0.0894321 0)
(1.07581 -0.104032 0)
(1.07857 -0.120154 0)
(1.07999 -0.137796 0)
(1.0799 -0.156996 0)
(1.07807 -0.177814 0)
(1.07431 -0.200413 0)
(1.06863 -0.225121 0)
(1.06098 -0.252296 0)
(1.05067 -0.282108 0)
(1.03643 -0.314535 0)
(1.01669 -0.349206 0)
(0.990052 -0.38444 0)
(0.956868 -0.41574 0)
(0.918202 -0.436751 0)
(0.876447 -0.451958 0)
(0.8301 -0.476148 0)
(0.764345 -0.490962 0)
(0.690743 -0.483519 0)
(1.02725 -0.00284512 0)
(1.02891 -0.00961213 0)
(1.03179 -0.0154813 0)
(1.03556 -0.0222221 0)
(1.04028 -0.0290061 0)
(1.04554 -0.0365821 0)
(1.0513 -0.0448389 0)
(1.05729 -0.0540711 0)
(1.06329 -0.0644301 0)
(1.06905 -0.0761098 0)
(1.07427 -0.0892452 0)
(1.0787 -0.103936 0)
(1.08211 -0.12021 0)
(1.08429 -0.138068 0)
(1.08511 -0.15755 0)
(1.08437 -0.178742 0)
(1.08199 -0.201862 0)
(1.07808 -0.227347 0)
(1.07273 -0.255753 0)
(1.06525 -0.287484 0)
(1.05422 -0.322738 0)
(1.03827 -0.361633 0)
(1.01545 -0.403672 0)
(0.982379 -0.449027 0)
(0.937595 -0.503026 0)
(0.878324 -0.562405 0)
(0.796843 -0.593439 0)
(0.715083 -0.589898 0)
(0.658876 -0.584472 0)
(1.0276 -0.00283987 0)
(1.02929 -0.00958263 0)
(1.03221 -0.0154354 0)
(1.03605 -0.0221532 0)
(1.04087 -0.0289078 0)
(1.04625 -0.0364535 0)
(1.05218 -0.0446701 0)
(1.05837 -0.0538648 0)
(1.06464 -0.0641915 0)
(1.07074 -0.0758575 0)
(1.07638 -0.0890099 0)
(1.08131 -0.103759 0)
(1.0853 -0.120138 0)
(1.08818 -0.138148 0)
(1.08982 -0.157823 0)
(1.0901 -0.179261 0)
(1.08901 -0.202715 0)
(1.08679 -0.228697 0)
(1.08366 -0.257907 0)
(1.07911 -0.290998 0)
(1.07162 -0.328372 0)
(1.05973 -0.370592 0)
(1.04226 -0.418629 0)
(1.01659 -0.471166 0)
(0.980694 -0.520736 0)
(0.934449 -0.556782 0)
(0.880328 -0.595188 0)
(0.804712 -0.659386 0)
(0.682128 -0.683244 0)
(1.02791 -0.00283464 0)
(1.02963 -0.00955439 0)
(1.03259 -0.0153914 0)
(1.03649 -0.022087 0)
(1.0414 -0.0288136 0)
(1.04688 -0.0363294 0)
(1.05295 -0.044506 0)
(1.05933 -0.0536614 0)
(1.06584 -0.0639505 0)
(1.07224 -0.0755926 0)
(1.07825 -0.0887449 0)
(1.08363 -0.103526 0)
(1.08817 -0.119976 0)
(1.09167 -0.138089 0)
(1.09405 -0.157889 0)
(1.09524 -0.17947 0)
(1.09533 -0.203108 0)
(1.0947 -0.229364 0)
(1.09366 -0.259016 0)
(1.09192 -0.292926 0)
(1.08815 -0.331799 0)
(1.08066 -0.37625 0)
(1.06913 -0.42781 0)
(1.05135 -0.487746 0)
(1.01791 -0.556437 0)
(0.967147 -0.647641 0)
(0.899528 -0.767609 0)
(0.771603 -0.838217 0)
(0.606143 -0.831029 0)
(1.02819 -0.00282955 0)
(1.02993 -0.00952775 0)
(1.03293 -0.01535 0)
(1.03688 -0.0220246 0)
(1.04186 -0.0287249 0)
(1.04744 -0.0362119 0)
(1.05364 -0.0443496 0)
(1.06018 -0.0534654 0)
(1.0669 -0.0637142 0)
(1.07357 -0.0753259 0)
(1.07992 -0.0884661 0)
(1.0857 -0.103261 0)
(1.09071 -0.119755 0)
(1.09478 -0.137934 0)
(1.09782 -0.157809 0)
(1.09982 -0.179457 0)
(1.10098 -0.203162 0)
(1.10179 -0.22952 0)
(1.10268 -0.259349 0)
(1.1035 -0.293608 0)
(1.10337 -0.333335 0)
(1.10059 -0.379273 0)
(1.09446 -0.432885 0)
(1.0853 -0.498449 0)
(1.06839 -0.577246 0)
(1.03708 -0.654191 0)
(0.986881 -0.713429 0)
(0.920621 -0.817855 0)
(0.765759 -0.987978 0)
(1.02843 -0.00282466 0)
(1.03019 -0.00950295 0)
(1.03322 -0.0153113 0)
(1.03722 -0.0219664 0)
(1.04227 -0.0286423 0)
(1.04793 -0.036102 0)
(1.05424 -0.0442028 0)
(1.06092 -0.0532798 0)
(1.06784 -0.0634875 0)
(1.07474 -0.075065 0)
(1.08139 -0.0881851 0)
(1.08753 -0.102981 0)
(1.09296 -0.119498 0)
(1.09753 -0.137717 0)
(1.10116 -0.157627 0)
(1.10388 -0.179289 0)
(1.10598 -0.202976 0)
(1.10808 -0.229303 0)
(1.11073 -0.259116 0)
(1.11384 -0.293379 0)
(1.11695 -0.333344 0)
(1.11891 -0.380137 0)
(1.11835 -0.434743 0)
(1.11742 -0.501421 0)
(1.11544 -0.58535 0)
(1.09232 -0.681369 0)
(1.04582 -0.823294 0)
(0.996114 -1.09771 0)
(0.731003 -1.25097 0)
(0.999011 -0.00373468 0)
(0.999361 -0.00360363 0)
(0.999592 -0.0034723 0)
(0.999708 -0.00334069 0)
(0.999702 -0.0032085 0)
(0.999558 -0.00307502 0)
(0.999249 -0.00293947 0)
(0.99874 -0.00280122 0)
(0.997994 -0.00265991 0)
(0.996978 -0.00251561 0)
(0.99567 -0.002369 0)
(0.994071 -0.00222142 0)
(0.992213 -0.00207482 0)
(0.990166 -0.00193149 0)
(0.988042 -0.00179374 0)
(0.985985 -0.00166342 0)
(0.984164 -0.00154145 0)
(0.982743 -0.00142752 0)
(0.981865 -0.00132004 0)
(0.997195 -0.00269275 0)
(0.996826 -0.00258338 0)
(0.996574 -0.00246171 0)
(0.996426 -0.00233068 0)
(0.996379 -0.00219181 0)
(0.996447 -0.00204715 0)
(0.996658 -0.0018992 0)
(0.997048 -0.00175074 0)
(0.997665 -0.00160478 0)
(0.998556 -0.00146438 0)
(0.999757 -0.00133244 0)
(1.00129 -0.00121134 0)
(1.00312 -0.00110271 0)
(1.00521 -0.0010072 0)
(1.00742 -0.000924434 0)
(1.00961 -0.000853126 0)
(1.01158 -0.000791314 0)
(1.01314 -0.000736649 0)
(1.01412 -0.000686616 0)
(0.994421 -0.0110178 0)
(0.994475 -0.0107146 0)
(0.994449 -0.0104143 0)
(0.994356 -0.0101148 0)
(0.994197 -0.00981533 0)
(0.993966 -0.00951464 0)
(0.993647 -0.00921156 0)
(0.993217 -0.00890491 0)
(0.992648 -0.00859343 0)
(0.991911 -0.00827571 0)
(0.990981 -0.00795041 0)
(0.989848 -0.00761639 0)
(0.988522 -0.00727298 0)
(0.987043 -0.00692023 0)
(0.985488 -0.00655905 0)
(0.983963 -0.00619117 0)
(0.9826 -0.00581896 0)
(0.981535 -0.0054451 0)
(0.980886 -0.00507229 0)
(0.990158 -0.0120128 0)
(0.989838 -0.0116357 0)
(0.989585 -0.0112482 0)
(0.989394 -0.0108531 0)
(0.989269 -0.0104506 0)
(0.989229 -0.0100418 0)
(0.989298 -0.00962819 0)
(0.989511 -0.00921189 0)
(0.989908 -0.00879532 0)
(0.990532 -0.00838111 0)
(0.991418 -0.00797175 0)
(0.992585 -0.00756909 0)
(0.994026 -0.00717386 0)
(0.995697 -0.00678531 0)
(0.997508 -0.00640105 0)
(0.999329 -0.00601729 0)
(1.001 -0.00562944 0)
(1.00234 -0.00523305 0)
(1.00322 -0.0048246 0)
(0.983769 -0.0199908 0)
(0.983648 -0.0193523 0)
(0.983466 -0.0187156 0)
(0.983236 -0.0180798 0)
(0.982967 -0.0174448 0)
(0.982661 -0.0168093 0)
(0.982311 -0.0161709 0)
(0.981907 -0.0155268 0)
(0.981428 -0.0148734 0)
(0.980849 -0.0142066 0)
(0.980143 -0.013522 0)
(0.979284 -0.0128162 0)
(0.978259 -0.0120869 0)
(0.977076 -0.0113341 0)
(0.975777 -0.0105603 0)
(0.974436 -0.00977042 0)
(0.973163 -0.00897068 0)
(0.972085 -0.00816738 0)
(0.971324 -0.00736521 0)
(0.977398 -0.0226145 0)
(0.977072 -0.0220415 0)
(0.976796 -0.0214531 0)
(0.976558 -0.0208523 0)
(0.976355 -0.0202381 0)
(0.976191 -0.0196095 0)
(0.976077 -0.0189654 0)
(0.97603 -0.0183044 0)
(0.976077 -0.0176247 0)
(0.976249 -0.0169244 0)
(0.976582 -0.0162007 0)
(0.977108 -0.0154501 0)
(0.977848 -0.0146675 0)
(0.978799 -0.013846 0)
(0.979922 -0.0129771 0)
(0.981135 -0.0120521 0)
(0.982311 -0.0110634 0)
(0.983293 -0.0100083 0)
(0.983921 -0.00889136 0)
(0.969595 -0.0286854 0)
(0.969213 -0.0276483 0)
(0.96879 -0.0265895 0)
(0.96833 -0.0255094 0)
(0.967831 -0.02441 0)
(0.967287 -0.023292 0)
(0.966689 -0.0221558 0)
(0.966021 -0.0210017 0)
(0.96526 -0.0198301 0)
(0.964378 -0.018642 0)
(0.963338 -0.0174392 0)
(0.962103 -0.0162256 0)
(0.960643 -0.0150079 0)
(0.958944 -0.013797 0)
(0.957032 -0.0126075 0)
(0.954983 -0.0114573 0)
(0.952939 -0.0103638 0)
(0.951095 -0.00933998 0)
(0.949676 -0.00838791 0)
(0.96066 -0.034567 0)
(0.959949 -0.0336878 0)
(0.959295 -0.0327852 0)
(0.958681 -0.031864 0)
(0.958102 -0.0309244 0)
(0.957556 -0.0299669 0)
(0.95705 -0.0289927 0)
(0.956598 -0.0280027 0)
(0.956226 -0.0269976 0)
(0.95597 -0.0259774 0)
(0.955879 -0.0249409 0)
(0.956014 -0.0238842 0)
(0.956434 -0.0227994 0)
(0.95719 -0.0216727 0)
(0.958291 -0.0204835 0)
(0.959687 -0.019205 0)
(0.96124 -0.0178076 0)
(0.962721 -0.0162664 0)
(0.963838 -0.0145712 0)
(0.951276 -0.0422383 0)
(0.950474 -0.0406984 0)
(0.949657 -0.0391145 0)
(0.948829 -0.0374882 0)
(0.947989 -0.035823 0)
(0.947134 -0.0341208 0)
(0.946256 -0.0323835 0)
(0.945338 -0.0306133 0)
(0.944358 -0.0288124 0)
(0.943281 -0.0269834 0)
(0.942053 -0.02513 0)
(0.940607 -0.0232579 0)
(0.938861 -0.0213773 0)
(0.936733 -0.0195053 0)
(0.934169 -0.0176683 0)
(0.931184 -0.0159031 0)
(0.927909 -0.0142541 0)
(0.924624 -0.0127644 0)
(0.921746 -0.0114614 0)
(0.940032 -0.05134 0)
(0.938734 -0.0499966 0)
(0.937512 -0.0486197 0)
(0.936353 -0.0472169 0)
(0.935251 -0.0457905 0)
(0.934205 -0.0443438 0)
(0.933222 -0.0428811 0)
(0.932315 -0.0414065 0)
(0.931505 -0.0399246 0)
(0.93083 -0.0384397 0)
(0.930346 -0.0369555 0)
(0.930134 -0.0354736 0)
(0.9303 -0.0339913 0)
(0.930968 -0.0324979 0)
(0.932246 -0.0309696 0)
(0.93418 -0.0293652 0)
(0.936681 -0.0276254 0)
(0.939463 -0.0256802 0)
(0.942025 -0.023469 0)
(0.928667 -0.0620954 0)
(0.927294 -0.0599592 0)
(0.925938 -0.0577537 0)
(0.924611 -0.0554826 0)
(0.92332 -0.0531493 0)
(0.922067 -0.0507557 0)
(0.920849 -0.0483034 0)
(0.919659 -0.0457943 0)
(0.918479 -0.0432301 0)
(0.917278 -0.0406129 0)
(0.916004 -0.0379445 0)
(0.914572 -0.0352277 0)
(0.91286 -0.032468 0)
(0.910702 -0.0296772 0)
(0.907911 -0.0268807 0)
(0.904332 -0.0241241 0)
(0.899933 -0.0214797 0)
(0.894939 -0.0190418 0)
(0.889928 -0.0169054 0)
(0.91571 -0.0734257 0)
(0.913664 -0.071434 0)
(0.911733 -0.0693805 0)
(0.909904 -0.0672788 0)
(0.908174 -0.0651375 0)
(0.906544 -0.0629663 0)
(0.905019 -0.0607764 0)
(0.903609 -0.0585788 0)
(0.902328 -0.0563847 0)
(0.901202 -0.0542048 0)
(0.900276 -0.0520495 0)
(0.899622 -0.0499281 0)
(0.899361 -0.0478481 0)
(0.899668 -0.0458119 0)
(0.900767 -0.0438094 0)
(0.902889 -0.0418073 0)
(0.906156 -0.0397341 0)
(0.910416 -0.0374728 0)
(0.915068 -0.0348741 0)
(0.902149 -0.0877844 0)
(0.899954 -0.0848982 0)
(0.897832 -0.0819139 0)
(0.895808 -0.0788394 0)
(0.893896 -0.0756785 0)
(0.892106 -0.0724321 0)
(0.890443 -0.0691005 0)
(0.888901 -0.0656837 0)
(0.887472 -0.0621813 0)
(0.886131 -0.0585933 0)
(0.884837 -0.0549192 0)
(0.883518 -0.0511585 0)
(0.882054 -0.0473106 0)
(0.880252 -0.0433773 0)
(0.877831 -0.0393684 0)
(0.874428 -0.0353144 0)
(0.869694 -0.0312866 0)
(0.863502 -0.0274151 0)
(0.856266 -0.0238839 0)
(0.887603 -0.101458 0)
(0.88456 -0.0985269 0)
(0.881715 -0.0954581 0)
(0.879055 -0.0922798 0)
(0.876577 -0.089012 0)
(0.87428 -0.0856782 0)
(0.872166 -0.0823034 0)
(0.870238 -0.0789137 0)
(0.868503 -0.075535 0)
(0.866971 -0.0721928 0)
(0.865664 -0.0689112 0)
(0.864628 -0.0657131 0)
(0.863947 -0.0626196 0)
(0.863778 -0.0596493 0)
(0.864382 -0.0568145 0)
(0.866135 -0.0541115 0)
(0.869462 -0.051496 0)
(0.874615 -0.0488478 0)
(0.881269 -0.0459427 0)
(0.871348 -0.119658 0)
(0.867889 -0.115597 0)
(0.864601 -0.111383 0)
(0.861527 -0.107026 0)
(0.858693 -0.102537 0)
(0.856121 -0.0979214 0)
(0.853819 -0.0931817 0)
(0.851792 -0.0883214 0)
(0.850029 -0.0833426 0)
(0.848512 -0.0782459 0)
(0.847205 -0.0730307 0)
(0.84605 -0.0676958 0)
(0.844951 -0.0622397 0)
(0.843745 -0.0566616 0)
(0.842158 -0.050965 0)
(0.839746 -0.0451647 0)
(0.835879 -0.0393151 0)
(0.829886 -0.033552 0)
(0.821497 -0.0281291 0)
(0.854259 -0.136858 0)
(0.849596 -0.132403 0)
(0.845292 -0.127615 0)
(0.841334 -0.12256 0)
(0.83773 -0.117278 0)
(0.834482 -0.111818 0)
(0.831594 -0.106233 0)
(0.829065 -0.100577 0)
(0.826895 -0.0949109 0)
(0.825079 -0.0892959 0)
(0.82362 -0.083798 0)
(0.822535 -0.0784846 0)
(0.82187 -0.0734242 0)
(0.821731 -0.068684 0)
(0.822333 -0.0643236 0)
(0.824066 -0.0603954 0)
(0.82755 -0.0569121 0)
(0.833504 -0.0538047 0)
(0.842324 -0.0508524 0)
(0.83424 -0.159894 0)
(0.828551 -0.153779 0)
(0.823193 -0.147344 0)
(0.818269 -0.140595 0)
(0.813822 -0.133565 0)
(0.809904 -0.126285 0)
(0.806545 -0.118791 0)
(0.803766 -0.111122 0)
(0.801573 -0.103319 0)
(0.799961 -0.0954187 0)
(0.79891 -0.0874497 0)
(0.798374 -0.0794338 0)
(0.798277 -0.0713823 0)
(0.798486 -0.0632956 0)
(0.798767 -0.0551747 0)
(0.798702 -0.0470083 0)
(0.797531 -0.0388273 0)
(0.794161 -0.030758 0)
(0.787251 -0.0230513 0)
(0.81316 -0.183071 0)
(0.80537 -0.176126 0)
(0.798261 -0.168409 0)
(0.791791 -0.160051 0)
(0.786043 -0.151156 0)
(0.781049 -0.141816 0)
(0.776852 -0.132143 0)
(0.773471 -0.122249 0)
(0.770922 -0.112258 0)
(0.769195 -0.102301 0)
(0.768273 -0.0925223 0)
(0.768132 -0.0830765 0)
(0.768762 -0.0741316 0)
(0.770187 -0.0658718 0)
(0.772523 -0.058469 0)
(0.776044 -0.052126 0)
(0.781433 -0.0469749 0)
(0.789626 -0.0430442 0)
(0.801928 -0.0403106 0)
(0.788303 -0.213851 0)
(0.778408 -0.20448 0)
(0.769035 -0.194258 0)
(0.760546 -0.18328 0)
(0.75301 -0.171562 0)
(0.746566 -0.15923 0)
(0.741288 -0.1464 0)
(0.737256 -0.133216 0)
(0.734498 -0.119827 0)
(0.733042 -0.106389 0)
(0.73288 -0.0930459 0)
(0.733983 -0.0799256 0)
(0.736283 -0.0671281 0)
(0.739662 -0.0546999 0)
(0.743899 -0.0426894 0)
(0.748674 -0.0310135 0)
(0.753053 -0.0196511 0)
(0.755888 -0.00873078 0)
(0.754924 0.00168389 0)
(0.762752 -0.247027 0)
(0.748776 -0.236249 0)
(0.736164 -0.22392 0)
(0.724688 -0.210055 0)
(0.714636 -0.194986 0)
(0.706133 -0.178886 0)
(0.699335 -0.161988 0)
(0.694307 -0.144536 0)
(0.691137 -0.126782 0)
(0.689835 -0.108988 0)
(0.69039 -0.0914348 0)
(0.69275 -0.0744175 0)
(0.696835 -0.0582526 0)
(0.702551 -0.0433284 0)
(0.709885 -0.0299678 0)
(0.718733 -0.0187535 0)
(0.729975 -0.010097 0)
(0.744264 -0.00418745 0)
(0.763514 -0.0016502 0)
(0.732692 -0.290166 0)
(0.714974 -0.276407 0)
(0.697943 -0.260309 0)
(0.682603 -0.242486 0)
(0.669168 -0.222908 0)
(0.657928 -0.201869 0)
(0.649027 -0.179698 0)
(0.64268 -0.156716 0)
(0.638923 -0.133273 0)
(0.637836 -0.109731 0)
(0.639419 -0.0864429 0)
(0.643648 -0.0637628 0)
(0.650455 -0.0420407 0)
(0.65974 -0.021492 0)
(0.671163 -0.00248133 0)
(0.684824 0.0152173 0)
(0.699027 0.0315709 0)
(0.713127 0.0464384 0)
(0.724599 0.0607145 0)
(0.703916 -0.339004 0)
(0.678503 -0.322719 0)
(0.655531 -0.303445 0)
(0.63489 -0.280936 0)
(0.616971 -0.255811 0)
(0.602082 -0.228673 0)
(0.590591 -0.199911 0)
(0.582481 -0.170047 0)
(0.577969 -0.139553 0)
(0.577047 -0.108872 0)
(0.579752 -0.0784739 0)
(0.58606 -0.048838 0)
(0.595915 -0.0204346 0)
(0.609142 0.00600301 0)
(0.625908 0.0301371 0)
(0.64499 0.0505102 0)
(0.66845 0.0664779 0)
(0.695376 0.0772233 0)
(0.728028 0.0795268 0)
(0.669431 -0.400327 0)
(0.636925 -0.380453 0)
(0.606636 -0.355649 0)
(0.579319 -0.32665 0)