/*--------------------------------*- C++ -*----------------------------------*\
  =========                 |
  \\      /  F ield         | OpenFOAM: The Open Source CFD Toolbox
   \\    /   O peration     | Website:  https://openfoam.org
    \\  /    A nd           | Version:  10
     \\/     M anipulation  |
\*---------------------------------------------------------------------------*/
FoamFile
{
    format      ascii;
    class       volVectorField;
    location    "0";
    object      U;
}
// * * * * * * * * * * * * * * * * * * * * * * * * * * * * * * * * * * * * * //

dimensions      [0 1 -1 0 0 0 0];

internalField   nonuniform List<vector> 
18483
(
(0.999999 -0.000238631 0)
(0.999999 -0.000845365 0)
(0.999999 -0.00132423 0)
(0.999998 -0.00181595 0)
(0.999998 -0.0022553 0)
(0.999998 -0.00265263 0)
(0.999998 -0.00299253 0)
(0.999999 -0.00326724 0)
(0.999998 -0.00347228 0)
(0.999996 -0.00360877 0)
(0.999991 -0.00368925 0)
(0.99998 -0.00373512 0)
(0.999963 -0.0037714 0)
(0.999944 -0.00383865 0)
(0.999925 -0.00397487 0)
(0.9999 -0.00420247 0)
(0.99982 -0.00448611 0)
(0.999468 -0.00473337 0)
(0.998215 -0.00485473 0)
(0.995146 -0.00476892 0)
(0.990388 -0.0045117 0)
(0.986295 -0.00421881 0)
(0.985426 -0.00393414 0)
(0.987633 -0.0036127 0)
(0.990927 -0.00325647 0)
(0.993842 -0.00291279 0)
(0.995949 -0.00261036 0)
(0.997336 -0.00235696 0)
(0.998209 -0.0021493 0)
(1.00073 -0.000678083 0)
(1.00074 -0.00239524 0)
(1.00078 -0.00376701 0)
(1.0008 -0.00519592 0)
(1.00081 -0.00648923 0)
(1.00079 -0.0076802 0)
(1.00074 -0.00871795 0)
(1.00065 -0.0095781 0)
(1.00053 -0.0102422 0)
(1.00038 -0.0107055 0)
(1.00022 -0.0109674 0)
(1.00009 -0.0110471 0)
(1.00001 -0.0109521 0)
(0.999993 -0.0106338 0)
(1.00005 -0.0100336 0)
(1.00012 -0.00911189 0)
(1.00015 -0.00793353 0)
(1.00024 -0.00669281 0)
(1.00091 -0.00563184 0)
(1.00319 -0.00501769 0)
(1.00736 -0.00490625 0)
(1.01118 -0.00503962 0)
(1.01159 -0.00519128 0)
(1.00858 -0.00534299 0)
(1.00461 -0.00548797 0)
(1.00139 -0.00557163 0)
(0.999265 -0.00558018 0)
(0.99797 -0.00552784 0)
(0.997203 -0.00543612 0)
(1.00202 -0.00103496 0)
(1.00208 -0.00365003 0)
(1.0022 -0.00577657 0)
(1.0023 -0.00803622 0)
(1.00237 -0.0101272 0)
(1.00236 -0.0121093 0)
(1.00226 -0.0138897 0)
(1.00205 -0.0154197 0)
(1.00173 -0.0166465 0)
(1.00132 -0.0175396 0)
(1.00083 -0.0180843 0)
(1.00029 -0.0182906 0)
(0.99974 -0.0182069 0)
(0.999175 -0.0179102 0)
(0.99856 -0.0175608 0)
(0.997864 -0.0173621 0)
(0.997093 -0.0173797 0)
(0.996199 -0.0174833 0)
(0.994874 -0.0174458 0)
(0.992454 -0.0170666 0)
(0.988693 -0.0162731 0)
(0.985109 -0.0152824 0)
(0.984171 -0.0144013 0)
(0.98609 -0.0136176 0)
(0.988818 -0.0128474 0)
(0.990927 -0.0121477 0)
(0.992242 -0.0115547 0)
(0.993005 -0.0110659 0)
(0.993444 -0.0106685 0)
(1.00353 -0.00131954 0)
(1.00367 -0.00465171 0)
(1.00391 -0.00740906 0)
(1.00414 -0.0103949 0)
(1.00432 -0.0132223 0)
(1.00438 -0.015978 0)
(1.00426 -0.0185284 0)
(1.00393 -0.0208003 0)
(1.00339 -0.022707 0)
(1.00263 -0.0241989 0)
(1.00169 -0.0252559 0)
(1.00061 -0.0258774 0)
(0.99947 -0.026105 0)
(0.998339 -0.0260134 0)
(0.997271 -0.0256281 0)
(0.996317 -0.0248337 0)
(0.995506 -0.023531 0)
(0.994906 -0.0218462 0)
(0.994962 -0.0200949 0)
(0.99671 -0.0185865 0)
(1.00069 -0.0174728 0)
(1.00488 -0.0166904 0)
(1.00572 -0.0159917 0)
(1.00266 -0.0153763 0)
(0.998408 -0.0149697 0)
(0.995058 -0.0146698 0)
(0.992879 -0.0143802 0)
(0.991531 -0.0140808 0)
(0.990691 -0.0137743 0)
(1.00509 -0.00154755 0)
(1.00532 -0.00545539 0)
(1.00571 -0.00873544 0)
(1.00612 -0.0123425 0)
(1.00647 -0.0158279 0)
(1.00665 -0.0193043 0)
(1.00658 -0.0226072 0)
(1.0062 -0.0256443 0)
(1.00547 -0.0282936 0)
(1.00442 -0.0304675 0)
(1.00309 -0.0320988 0)
(1.00158 -0.0331462 0)
(0.999968 -0.0336218 0)
(0.998337 -0.0335885 0)
(0.996737 -0.0331726 0)
(0.995168 -0.0325705 0)
(0.993589 -0.0320563 0)
(0.991964 -0.0317871 0)
(0.990027 -0.0315887 0)
(0.986975 -0.0311595 0)
(0.982135 -0.0303499 0)
(0.977019 -0.0291879 0)
(0.975067 -0.0279373 0)
(0.97711 -0.026712 0)
(0.980278 -0.0253826 0)
(0.982444 -0.0240651 0)
(0.983556 -0.0228977 0)
(0.984066 -0.0219038 0)
(0.984279 -0.0210738 0)
(1.00664 -0.00172808 0)
(1.007 -0.00609202 0)
(1.00756 -0.00979669 0)
(1.00819 -0.0139209 0)
(1.00877 -0.0179741 0)
(1.00915 -0.0220973 0)
(1.00921 -0.026105 0)
(1.00885 -0.0298879 0)
(1.00802 -0.0332838 0)
(1.00673 -0.0361584 0)
(1.00502 -0.0384081 0)
(1.00295 -0.0399875 0)
(1.00061 -0.040924 0)
(0.998116 -0.0412707 0)
(0.995589 -0.0410973 0)
(0.993149 -0.0403978 0)
(0.9909 -0.0390415 0)
(0.988957 -0.0369752 0)
(0.987722 -0.0344402 0)
(0.988295 -0.0318925 0)
(0.9917 -0.029694 0)
(0.996177 -0.0280145 0)
(0.997166 -0.0266773 0)
(0.993125 -0.0255292 0)
(0.987579 -0.0247159 0)
(0.983496 -0.024119 0)
(0.980997 -0.0235459 0)
(0.979464 -0.0229621 0)
(0.978478 -0.0223734 0)
(1.00818 -0.00186657 0)
(1.00867 -0.00658094 0)
(1.00943 -0.0106226 0)
(1.01032 -0.0151677 0)
(1.01119 -0.0197018 0)
(1.01184 -0.0243981 0)
(1.01211 -0.0290596 0)
(1.01185 -0.0335677 0)
(1.01098 -0.0377338 0)
(1.00947 -0.0413987 0)
(1.00733 -0.044439 0)
(1.00463 -0.0467808 0)
(1.00156 -0.0483811 0)
(0.998309 -0.0491955 0)
(0.99504 -0.0492484 0)
(0.991853 -0.0486759 0)
(0.988766 -0.0478573 0)
(0.985751 -0.0472778 0)
(0.982624 -0.0469972 0)
(0.978522 -0.0466024 0)
(0.972306 -0.0456601 0)
(0.965226 -0.0439843 0)
(0.961748 -0.0418966 0)
(0.963788 -0.039797 0)
(0.967513 -0.0376221 0)
(0.969644 -0.035461 0)
(0.970334 -0.033541 0)
(0.970375 -0.0318963 0)
(0.970156 -0.0305083 0)
(1.00967 -0.00196886 0)
(1.0103 -0.00694238 0)
(1.01129 -0.0112457 0)
(1.01247 -0.0161296 0)
(1.01367 -0.0210698 0)
(1.01464 -0.0262753 0)
(1.01519 -0.0315497 0)
(1.01512 -0.0367775 0)
(1.01431 -0.0417579 0)
(1.01268 -0.0463091 0)
(1.01024 -0.0502536 0)
(1.00712 -0.0534335 0)
(1.00351 -0.0557309 0)
(0.999561 -0.057094 0)
(0.995399 -0.0575902 0)
(0.991134 -0.0573106 0)
(0.986962 -0.0562471 0)
(0.983177 -0.0541755 0)
(0.980161 -0.0510173 0)
(0.978752 -0.04732 0)
(0.980266 -0.0439129 0)
(0.983897 -0.0414207 0)
(0.984723 -0.0397339 0)
(0.979656 -0.0382758 0)
(0.97248 -0.0370662 0)
(0.967403 -0.0361211 0)
(0.964422 -0.0351849 0)
(0.962518 -0.0342235 0)
(0.9612 -0.0332639 0)
(1.01109 -0.00204183 0)
(1.01186 -0.00719841 0)
(1.01309 -0.0117002 0)
(1.01458 -0.016856 0)
(1.01613 -0.0221395 0)
(1.01747 -0.0277992 0)
(1.01837 -0.0336491 0)
(1.01859 -0.039586 0)
(1.01796 -0.0454001 0)
(1.01637 -0.0508821 0)
(1.01381 -0.0558024 0)
(1.01035 -0.0599597 0)
(1.00611 -0.0632272 0)
(1.00124 -0.0655542 0)
(0.995923 -0.0669565 0)
(0.990409 -0.0674303 0)
(0.984931 -0.0671109 0)
(0.979609 -0.0664809 0)
(0.974317 -0.0660835 0)
(0.968531 -0.0658404 0)
(0.961225 -0.0650111 0)
(0.95281 -0.0629381 0)
(0.947374 -0.0598263 0)
(0.948136 -0.0566326 0)
(0.951569 -0.0536027 0)
(0.953154 -0.0505847 0)
(0.953 -0.0478705 0)
(0.952292 -0.045537 0)
(0.951438 -0.0435427 0)
(1.01242 -0.00209229 0)
(1.01332 -0.0073699 0)
(1.01479 -0.0120171 0)
(1.0166 -0.0173904 0)
(1.01853 -0.0229627 0)
(1.02028 -0.0290245 0)
(1.02159 -0.0354071 0)
(1.02218 -0.0420258 0)
(1.02185 -0.0486705 0)
(1.02042 -0.055122 0)
(1.01782 -0.0611343 0)
(1.01406 -0.0664866 0)
(1.00925 -0.0710002 0)
(1.00361 -0.0745154 0)
(0.997435 -0.0769245 0)
(0.990981 -0.0781601 0)
(0.984473 -0.0782138 0)
(0.9782 -0.0769749 0)
(0.972591 -0.0741757 0)
(0.96837 -0.069994 0)
(0.96676 -0.0654719 0)
(0.968042 -0.0619161 0)
(0.968385 -0.0598074 0)
(0.963136 -0.0581432 0)
(0.954652 -0.0563574 0)
(0.948299 -0.0548454 0)
(0.944581 -0.0534056 0)
(0.942052 -0.0519152 0)
(0.940178 -0.0504581 0)
(1.01363 -0.0021259 0)
(1.01466 -0.00747423 0)
(1.01638 -0.0122213 0)
(1.01851 -0.0177659 0)
(1.02082 -0.0235769 0)
(1.02301 -0.0299876 0)
(1.02478 -0.0368522 0)
(1.02583 -0.0441115 0)
(1.02589 -0.0515695 0)
(1.02474 -0.0590162 0)
(1.02225 -0.0661964 0)
(1.0184 -0.0728451 0)
(1.01332 -0.0786954 0)
(1.0072 -0.0834944 0)
(1.00025 -0.0870963 0)
(0.99266 -0.0894469 0)
(0.984623 -0.0905622 0)
(0.976358 -0.0906787 0)
(0.968065 -0.0904415 0)
(0.959784 -0.0903975 0)
(0.95105 -0.0901509 0)
(0.941509 -0.0885621 0)
(0.933526 -0.0850199 0)
(0.931064 -0.0807199 0)
(0.932777 -0.0768433 0)
(0.933436 -0.0730503 0)
(0.932163 -0.0694742 0)
(0.930496 -0.066403 0)
(0.928879 -0.0637493 0)
(1.01474 -0.00214671 0)
(1.01588 -0.00752556 0)
(1.01783 -0.0123328 0)
(1.02028 -0.0180068 0)
(1.02299 -0.0240085 0)
(1.02563 -0.0307134 0)
(1.0279 -0.0380017 0)
(1.02947 -0.0458454 0)
(1.03002 -0.0540732 0)
(1.0293 -0.0624899 0)
(1.02712 -0.0708296 0)
(1.02343 -0.0787919 0)
(1.01827 -0.0860744 0)
(1.01173 -0.0923992 0)
(1.00397 -0.0975752 0)
(0.995239 -0.101467 0)
(0.985837 -0.103938 0)
(0.976188 -0.104782 0)
(0.967004 -0.103663 0)
(0.959219 -0.100415 0)
(0.953803 -0.0956405 0)
(0.951458 -0.0908997 0)
(0.950227 -0.0877969 0)
(0.945067 -0.0858692 0)
(0.935595 -0.0835231 0)
(0.92731 -0.0811384 0)
(0.922296 -0.0790114 0)
(0.918813 -0.0767866 0)
(0.916117 -0.0746093 0)
(1.01576 -0.00215733 0)
(1.01701 -0.00753605 0)
(1.01917 -0.0123699 0)
(1.02192 -0.0181336 0)
(1.02501 -0.0242799 0)
(1.02812 -0.031223 0)
(1.03091 -0.0388706 0)
(1.03304 -0.0472282 0)
(1.03418 -0.0561538 0)
(1.034 -0.0654733 0)
(1.03229 -0.0749279 0)
(1.0289 -0.0842172 0)
(1.02379 -0.0930301 0)
(1.01701 -0.101041 0)
(1.00873 -0.10793 0)
(0.999196 -0.113403 0)
(0.988684 -0.117222 0)
(0.977476 -0.119287 0)
(0.965975 -0.120032 0)
(0.954547 -0.120464 0)
(0.94324 -0.120979 0)
(0.931664 -0.120521 0)
(0.920569 -0.117553 0)
(0.913354 -0.112425 0)
(0.911562 -0.107338 0)
(0.910822 -0.102718 0)
(0.908254 -0.0980985 0)
(0.905288 -0.0940348 0)
(0.902667 -0.0905182 0)
(1.01672 -0.00215928 0)
(1.01807 -0.00751622 0)
(1.02039 -0.0123503 0)
(1.02343 -0.0181662 0)
(1.02689 -0.0244133 0)
(1.03045 -0.0315398 0)
(1.03377 -0.03948 0)
(1.0365 -0.0482725 0)
(1.03826 -0.0578095 0)
(1.03872 -0.0679478 0)
(1.03758 -0.0784549 0)
(1.03463 -0.0890434 0)
(1.02979 -0.0993836 0)
(1.02307 -0.109095 0)
(1.01455 -0.117778 0)
(1.00435 -0.12509 0)
(0.992603 -0.130814 0)
(0.979675 -0.134786 0)
(0.966418 -0.136727 0)
(0.954181 -0.136098 0)
(0.944157 -0.132701 0)
(0.937072 -0.127593 0)
(0.93238 -0.123059 0)
(0.926256 -0.120402 0)
(0.915786 -0.117733 0)
(0.904712 -0.114217 0)
(0.897249 -0.110955 0)
(0.892207 -0.107666 0)
(0.888197 -0.104332 0)
(1.0176 -0.00215373 0)
(1.01906 -0.00747406 0)
(1.02153 -0.0122898 0)
(1.02481 -0.0181242 0)
(1.02862 -0.0244314 0)
(1.03262 -0.0316898 0)
(1.03646 -0.0398573 0)
(1.03978 -0.0490048 0)
(1.04221 -0.0590622 0)
(1.04335 -0.0699234 0)
(1.04289 -0.0813875 0)
(1.04056 -0.0931842 0)
(1.03623 -0.104978 0)
(1.0298 -0.116382 0)
(1.02123 -0.126982 0)
(1.01054 -0.13637 0)
(0.9979 -0.144177 0)
(0.983792 -0.150017 0)
(0.968999 -0.153655 0)
(0.954149 -0.155671 0)
(0.939286 -0.15725 0)
(0.924265 -0.158334 0)
(0.909113 -0.157023 0)
(0.895945 -0.151957 0)
(0.888384 -0.145302 0)
(0.884924 -0.139372 0)
(0.880743 -0.13344 0)
(0.875802 -0.12778 0)
(0.871564 -0.122869 0)
(1.01841 -0.00214202 0)
(1.01996 -0.00741488 0)
(1.02258 -0.0121998 0)
(1.02608 -0.0180255 0)
(1.0302 -0.0243563 0)
(1.03461 -0.0317003 0)
(1.03896 -0.0400347 0)
(1.04288 -0.0494605 0)
(1.04598 -0.0599463 0)
(1.04786 -0.0714232 0)
(1.04815 -0.0837247 0)
(1.04658 -0.0966098 0)
(1.04291 -0.109767 0)
(1.03695 -0.122828 0)
(1.02859 -0.135365 0)
(1.01778 -0.146879 0)
(1.00462 -0.156913 0)
(0.989454 -0.165126 0)
(0.972928 -0.171236 0)
(0.956099 -0.174813 0)
(0.940445 -0.17498 0)
(0.927226 -0.171417 0)
(0.916834 -0.166118 0)
(0.907504 -0.162262 0)
(0.895274 -0.159403 0)
(0.880506 -0.154936 0)
(0.868548 -0.149902 0)
(0.860564 -0.145072 0)
(0.854306 -0.139975 0)
(1.01913 -0.00212572 0)
(1.02077 -0.00734258 0)
(1.02353 -0.0120883 0)
(1.02723 -0.017885 0)
(1.03165 -0.0242092 0)
(1.03645 -0.0315985 0)
(1.04128 -0.0400454 0)
(1.04578 -0.0496789 0)
(1.04955 -0.0605042 0)
(1.05217 -0.0724888 0)
(1.05328 -0.0855045 0)
(1.05252 -0.0993525 0)
(1.04962 -0.113758 0)
(1.04433 -0.128373 0)
(1.03646 -0.142768 0)
(1.02584 -0.156433 0)
(1.01244 -0.168903 0)
(0.996529 -0.179788 0)
(0.978822 -0.188536 0)
(0.960212 -0.194687 0)
(0.941173 -0.198876 0)
(0.9215 -0.202261 0)
(0.90102 -0.203881 0)
(0.88076 -0.2008 0)
(0.864788 -0.193264 0)
(0.855627 -0.185349 0)
(0.848698 -0.177848 0)
(0.840685 -0.169877 0)
(0.833468 -0.162616 0)
(1.01976 -0.00210644 0)
(1.02149 -0.00726081 0)
(1.02438 -0.0119611 0)
(1.02827 -0.0177148 0)
(1.03296 -0.0240091 0)
(1.03812 -0.0314104 0)
(1.04341 -0.0399228 0)
(1.04846 -0.0497019 0)
(1.05288 -0.0607861 0)
(1.05625 -0.0731785 0)
(1.05816 -0.0867915 0)
(1.05827 -0.101471 0)
(1.05624 -0.116979 0)
(1.05178 -0.132999 0)
(1.04462 -0.149143 0)
(1.03449 -0.164935 0)
(1.02123 -0.17989 0)
(1.0051 -0.193549 0)
(0.986611 -0.205329 0)
(0.966371 -0.214565 0)
(0.945365 -0.220469 0)
(0.925207 -0.22177 0)
(0.907155 -0.218315 0)
(0.891391 -0.21358 0)
(0.87533 -0.210669 0)
(0.855904 -0.206534 0)
(0.836651 -0.199684 0)
(0.822733 -0.192684 0)
(0.812432 -0.185291 0)
(1.02033 -0.00208557 0)
(1.02213 -0.00717327 0)
(1.02515 -0.0118236 0)
(1.02921 -0.0175246 0)
(1.03416 -0.0237722 0)
(1.03964 -0.0311592 0)
(1.04535 -0.0396981 0)
(1.05093 -0.0495702 0)
(1.05596 -0.0608437 0)
(1.06005 -0.0735546 0)
(1.06278 -0.0876537 0)
(1.06377 -0.103029 0)
(1.06268 -0.119485 0)
(1.05918 -0.136749 0)
(1.05291 -0.154492 0)
(1.04353 -0.172291 0)
(1.03082 -0.189668 0)
(1.01488 -0.206171 0)
(0.996002 -0.221208 0)
(0.974664 -0.233922 0)
(0.95152 -0.243782 0)
(0.926814 -0.251554 0)
(0.90023 -0.257956 0)
(0.87203 -0.260449 0)
(0.845086 -0.255325 0)
(0.825215 -0.24563 0)
(0.812286 -0.236282 0)
(0.799603 -0.225971 0)
(0.78692 -0.215253 0)
(1.02083 -0.00206415 0)
(1.02269 -0.00708342 0)
(1.02583 -0.0116805 0)
(1.03005 -0.0173223 0)
(1.03524 -0.0235116 0)
(1.04103 -0.0308646 0)
(1.04712 -0.0393994 0)
(1.05318 -0.0493213 0)
(1.0588 -0.0607247 0)
(1.06358 -0.0736752 0)
(1.0671 -0.0881581 0)
(1.06899 -0.104102 0)
(1.06888 -0.121357 0)
(1.06638 -0.139699 0)
(1.06112 -0.158861 0)
(1.05273 -0.178489 0)
(1.0409 -0.198167 0)
(1.02554 -0.217475 0)
(1.0068 -0.23582 0)
(0.984988 -0.252326 0)
(0.960566 -0.266048 0)
(0.93444 -0.275568 0)
(0.908104 -0.278838 0)
(0.883017 -0.276546 0)
(0.859762 -0.274224 0)
(0.834574 -0.272753 0)
(0.805575 -0.266468 0)
(0.780384 -0.257087 0)
(0.762328 -0.247274 0)
(1.02127 -0.00204289 0)
(1.02319 -0.00699405 0)
(1.02643 -0.0115362 0)
(1.03081 -0.0171147 0)
(1.03621 -0.0232383 0)
(1.04227 -0.0305431 0)
(1.04873 -0.03905 0)
(1.05524 -0.0489874 0)
(1.06141 -0.0604711 0)
(1.06684 -0.0735929 0)
(1.07113 -0.0883704 0)
(1.07389 -0.104769 0)
(1.07474 -0.122686 0)
(1.07328 -0.141942 0)
(1.06912 -0.162327 0)
(1.06187 -0.183576 0)
(1.05116 -0.20536 0)
(1.0368 -0.227301 0)
(1.01873 -0.248842 0)
(0.997052 -0.269161 0)
(0.97197 -0.287324 0)
(0.943514 -0.302869 0)
(0.911368 -0.316774 0)
(0.875463 -0.328836 0)
(0.836924 -0.333143 0)
(0.801012 -0.326023 0)
(0.774928 -0.315084 0)
(0.754664 -0.303804 0)
(0.73327 -0.289482 0)
(1.02167 -0.00202227 0)
(1.02363 -0.00690722 0)
(1.02696 -0.0113946 0)
(1.03147 -0.0169075 0)
(1.03708 -0.0229612 0)
(1.04339 -0.0302079 0)
(1.05018 -0.0386694 0)
(1.0571 -0.0485954 0)
(1.06378 -0.0601197 0)
(1.06983 -0.0733567 0)
(1.07484 -0.0883544 0)
(1.07842 -0.105111 0)
(1.08021 -0.123564 0)
(1.07979 -0.143576 0)
(1.07678 -0.164994 0)
(1.07077 -0.187642 0)
(1.06139 -0.211281 0)
(1.04833 -0.235608 0)
(1.03135 -0.260145 0)
(1.01039 -0.284204 0)
(0.985506 -0.306985 0)
(0.956637 -0.327256 0)
(0.924399 -0.342529 0)
(0.890354 -0.349704 0)
(0.856466 -0.351024 0)
(0.822845 -0.354511 0)
(0.783626 -0.355612 0)
(0.740804 -0.346713 0)
(0.706951 -0.334703 0)
(1.02202 -0.0020026 0)
(1.02402 -0.0068243 0)
(1.02743 -0.0112582 0)
(1.03207 -0.0167053 0)
(1.03785 -0.0226874 0)
(1.04438 -0.0298698 0)
(1.05147 -0.0382734 0)
(1.05877 -0.048168 0)
(1.06592 -0.0597017 0)
(1.07254 -0.0730094 0)
(1.07822 -0.0881654 0)
(1.08259 -0.105195 0)
(1.08528 -0.124072 0)
(1.08589 -0.144699 0)
(1.08402 -0.166971 0)
(1.07931 -0.190794 0)
(1.07136 -0.216022 0)
(1.05981 -0.242439 0)
(1.04428 -0.269671 0)
(1.02461 -0.297154 0)
(1.00075 -0.324238 0)
(0.972134 -0.350015 0)
(0.937682 -0.374221 0)
(0.896958 -0.398722 0)
(0.849861 -0.42158 0)
(0.796723 -0.430176 0)
(0.747004 -0.421789 0)
(0.710427 -0.41097 0)
(0.677169 -0.396303 0)
(1.02233 -0.00198409 0)
(1.02437 -0.00674619 0)
(1.02785 -0.0111289 0)
(1.03259 -0.0165115 0)
(1.03853 -0.0224224 0)
(1.04526 -0.0295372 0)
(1.05262 -0.0378751 0)
(1.06027 -0.0477241 0)
(1.06784 -0.0592435 0)
(1.07498 -0.0725866 0)
(1.08129 -0.0878503 0)
(1.08639 -0.105083 0)
(1.08994 -0.124287 0)
(1.09154 -0.145406 0)
(1.0908 -0.168371 0)
(1.08738 -0.193161 0)
(1.08091 -0.219718 0)
(1.07098 -0.247907 0)
(1.05717 -0.277473 0)
(1.03922 -0.307989 0)
(1.01697 -0.33907 0)
(0.989766 -0.370233 0)
(0.956699 -0.399962 0)
(0.918265 -0.424416 0)
(0.875672 -0.438949 0)
(0.830618 -0.449152 0)
(0.781366 -0.465603 0)
(0.719051 -0.471011 0)
(0.654667 -0.458312 0)
(1.0226 -0.00196687 0)
(1.02468 -0.00667346 0)
(1.02822 -0.011008 0)
(1.03305 -0.0163286 0)
(1.03913 -0.0221701 0)
(1.04604 -0.0292164 0)
(1.05365 -0.0374841 0)
(1.06159 -0.0472781 0)
(1.06956 -0.0587658 0)
(1.07717 -0.072117 0)
(1.08405 -0.0874475 0)
(1.08984 -0.104826 0)
(1.09419 -0.124278 0)
(1.09673 -0.145781 0)
(1.09706 -0.1693 0)
(1.0949 -0.19487 0)
(1.08991 -0.222512 0)
(1.08165 -0.252158 0)
(1.0697 -0.28367 0)
(1.05379 -0.316792 0)
(1.03364 -0.351264 0)
(1.00875 -0.386904 0)
(0.977666 -0.423198 0)
(0.937843 -0.460643 0)
(0.888701 -0.503717 0)
(0.828639 -0.548039 0)
(0.752695 -0.566339 0)
(0.677571 -0.558225 0)
(0.620969 -0.548322 0)
(1.02285 -0.00195101 0)
(1.02495 -0.0066064 0)
(1.02855 -0.0108961 0)
(1.03346 -0.0161579 0)
(1.03966 -0.0219332 0)
(1.04672 -0.0289119 0)
(1.05455 -0.0371081 0)
(1.06277 -0.0468414 0)
(1.07108 -0.0582853 0)
(1.07913 -0.0716242 0)
(1.08653 -0.0869898 0)
(1.09295 -0.104468 0)
(1.09803 -0.124104 0)
(1.10143 -0.145902 0)
(1.10278 -0.169856 0)
(1.10182 -0.196043 0)
(1.09827 -0.224553 0)
(1.09167 -0.255374 0)
(1.0816 -0.288455 0)
(1.06791 -0.323718 0)
(1.05024 -0.361019 0)
(1.02801 -0.400465 0)
(1.00042 -0.442654 0)
(0.965814 -0.486522 0)
(0.922823 -0.525632 0)
(0.871112 -0.552495 0)
(0.812563 -0.58388 0)
(0.736264 -0.632235 0)
(0.626274 -0.641502 0)
(1.02306 -0.00193652 0)
(1.02519 -0.00654512 0)
(1.02883 -0.0107934 0)
(1.03381 -0.0160004 0)
(1.04012 -0.0217133 0)
(1.04733 -0.0286267 0)
(1.05535 -0.0367521 0)
(1.06381 -0.0464221 0)
(1.07243 -0.0578144 0)
(1.08086 -0.0711267 0)
(1.08874 -0.0865032 0)
(1.09573 -0.104046 0)
(1.10148 -0.123813 0)
(1.10567 -0.145832 0)
(1.10797 -0.170122 0)
(1.10814 -0.196788 0)
(1.10595 -0.225976 0)
(1.10095 -0.257728 0)
(1.09272 -0.292037 0)
(1.08125 -0.328972 0)
(1.06632 -0.368576 0)
(1.04713 -0.410923 0)
(1.0236 -0.456982 0)
(0.994334 -0.508049 0)
(0.952111 -0.565331 0)
(0.896009 -0.639993 0)
(0.826816 -0.73262 0)
(0.710876 -0.781019 0)
(0.562747 -0.771656 0)
(1.02324 -0.00192339 0)
(1.0254 -0.00648959 0)
(1.02908 -0.0106999 0)
(1.03413 -0.0158563 0)
(1.04053 -0.0215112 0)
(1.04786 -0.0283626 0)
(1.05605 -0.0364197 0)
(1.06473 -0.0460263 0)
(1.07363 -0.0573629 0)
(1.0824 -0.070639 0)
(1.0907 -0.0860093 0)
(1.0982 -0.103588 0)
(1.10456 -0.123447 0)
(1.10947 -0.145629 0)
(1.11263 -0.170172 0)
(1.11384 -0.197205 0)
(1.11292 -0.226911 0)
(1.10944 -0.259387 0)
(1.10296 -0.29465 0)
(1.09358 -0.332825 0)
(1.08142 -0.374177 0)
(1.0656 -0.418803 0)
(1.04584 -0.467587 0)
(1.02298 -0.52425 0)
(0.994121 -0.590269 0)
(0.95265 -0.651562 0)
(0.89321 -0.695541 0)
(0.821134 -0.785583 0)
(0.675777 -0.921357 0)
(1.02341 -0.00191157 0)
(1.02558 -0.00643964 0)
(1.0293 -0.0106155 0)
(1.0344 -0.0157257 0)
(1.04089 -0.0213272 0)
(1.04833 -0.0281206 0)
(1.05666 -0.036113 0)
(1.06553 -0.0456575 0)
(1.07468 -0.056937 0)
(1.08376 -0.0701711 0)
(1.09243 -0.0855229 0)
(1.10039 -0.103118 0)
(1.10729 -0.123037 0)
(1.11285 -0.145334 0)
(1.1168 -0.170065 0)
(1.11896 -0.197372 0)
(1.11918 -0.227468 0)
(1.1171 -0.260491 0)
(1.11228 -0.296485 0)
(1.10483 -0.33556 0)
(1.09521 -0.378109 0)
(1.08287 -0.424454 0)
(1.06714 -0.475014 0)
(1.05047 -0.533427 0)
(1.03279 -0.604633 0)
(0.996538 -0.685478 0)
(0.940999 -0.805087 0)
(0.882321 -1.02081 0)
(0.64305 -1.11406 0)
(0.99875 -0.0019781 0)
(0.999101 -0.00182284 0)
(0.999314 -0.00166898 0)
(0.999402 -0.00151565 0)
(0.999365 -0.00136227 0)
(0.999194 -0.00120823 0)
(0.998867 -0.00105346 0)
(0.998357 -0.000898588 0)
(0.997629 -0.000745195 0)
(0.99665 -0.000595997 0)
(0.995395 -0.000455002 0)
(0.993859 -0.000327491 0)
(0.992063 -0.000219747 0)
(0.990065 -0.000138469 0)
(0.987962 -8.98769e-05 0)
(0.985893 -7.85961e-05 0)
(0.984021 -0.000106525 0)
(0.982521 -0.000171932 0)
(0.981549 -0.000269057 0)
(0.996745 -0.00532653 0)
(0.996453 -0.00520901 0)
(0.996271 -0.00508509 0)
(0.996188 -0.00495907 0)
(0.996208 -0.00483311 0)
(0.99635 -0.00470931 0)
(0.996648 -0.00458954 0)
(0.997152 -0.00447504 0)
(0.997921 -0.00436613 0)
(0.999017 -0.00426177 0)
(1.00049 -0.00415903 0)
(1.00239 -0.00405272 0)
(1.00469 -0.00393526 0)
(1.00735 -0.00379709 0)
(1.01023 -0.00362763 0)
(1.01316 -0.00341691 0)
(1.01589 -0.00315756 0)
(1.01817 -0.00284678 0)
(1.01974 -0.00248767 0)
(0.993702 -0.0103403 0)
(0.993869 -0.0100383 0)
(0.993974 -0.00973249 0)
(0.994026 -0.0094218 0)
(0.99402 -0.00910642 0)
(0.993942 -0.00878562 0)
(0.993764 -0.00845833 0)
(0.993446 -0.00812332 0)
(0.992936 -0.00777928 0)
(0.992173 -0.00742518 0)
(0.991091 -0.00706069 0)
(0.989637 -0.00668671 0)
(0.987783 -0.00630576 0)
(0.985545 -0.00592203 0)
(0.983002 -0.00554102 0)
(0.980302 -0.00516859 0)
(0.977661 -0.00480959 0)
(0.975336 -0.00446655 0)
(0.973588 -0.00413861 0)
(0.990147 -0.0134736 0)
(0.989759 -0.0131751 0)
(0.989465 -0.0128682 0)
(0.989254 -0.0125555 0)
(0.989125 -0.0122368 0)
(0.989088 -0.0119124 0)
(0.989169 -0.0115824 0)
(0.989405 -0.0112472 0)
(0.989847 -0.0109068 0)
(0.990558 -0.0105609 0)
(0.9916 -0.0102085 0)
(0.993025 -0.00984733 0)
(0.994858 -0.00947399 0)
(0.997073 -0.00908373 0)
(0.999577 -0.00867104 0)
(1.0022 -0.00823063 0)
(1.00472 -0.00775884 0)
(1.00684 -0.00725497 0)
(1.0083 -0.00672215 0)
(0.984354 -0.0203758 0)
(0.984363 -0.0197312 0)
(0.984329 -0.0190829 0)
(0.984259 -0.0184303 0)
(0.984149 -0.0177741 0)
(0.983985 -0.0171136 0)
(0.983742 -0.0164479 0)
(0.98338 -0.0157754 0)
(0.982847 -0.0150943 0)
(0.982077 -0.0144024 0)
(0.980998 -0.0136976 0)
(0.979541 -0.0129785 0)
(0.977658 -0.0122443 0)
(0.975347 -0.0114961 0)
(0.972673 -0.0107359 0)
(0.969784 -0.00996677 0)
(0.96691 -0.00919156 0)
(0.964336 -0.00841224 0)
(0.962361 -0.00762923 0)
(0.977804 -0.0217986 0)
(0.977283 -0.0212247 0)
(0.976844 -0.0206268 0)
(0.976471 -0.0200073 0)
(0.976155 -0.0193644 0)
(0.975901 -0.0186972 0)
(0.975721 -0.0180054 0)
(0.975642 -0.0172888 0)
(0.975703 -0.0165482 0)
(0.975958 -0.0157849 0)
(0.976466 -0.015001 0)
(0.977287 -0.0141988 0)
(0.978461 -0.0133811 0)
(0.979989 -0.0125507 0)
(0.981808 -0.0117103 0)
(0.983783 -0.0108628 0)
(0.985703 -0.0100123 0)
(0.987312 -0.00916436 0)
(0.988357 -0.00832612 0)
(0.969847 -0.0293297 0)
(0.969497 -0.0282332 0)
(0.969101 -0.0271248 0)
(0.968669 -0.026004 0)
(0.968199 -0.0248726 0)
(0.967681 -0.0237314 0)
(0.967099 -0.022581 0)
(0.966427 -0.0214223 0)
(0.965627 -0.0202562 0)
(0.964654 -0.0190839 0)
(0.963451 -0.017907 0)
(0.961965 -0.0167279 0)
(0.96016 -0.01555 0)
(0.958034 -0.0143782 0)
(0.955649 -0.0132188 0)
(0.953143 -0.0120781 0)
(0.950736 -0.0109615 0)
(0.948698 -0.00987097 0)
(0.9473 -0.00880443 0)
(0.960219 -0.032333 0)
(0.959398 -0.0314073 0)
(0.958647 -0.0304455 0)
(0.957949 -0.0294528 0)
(0.957302 -0.028429 0)
(0.956709 -0.0273751 0)
(0.956184 -0.0262933 0)
(0.955755 -0.0251867 0)
(0.955461 -0.0240589 0)
(0.955356 -0.0229142 0)
(0.955502 -0.0217574 0)
(0.955966 -0.0205922 0)
(0.956802 -0.0194208 0)
(0.958028 -0.0182426 0)
(0.959601 -0.0170532 0)
(0.961394 -0.0158455 0)
(0.963198 -0.0146108 0)
(0.964743 -0.0133431 0)
(0.965753 -0.012042 0)
(0.950591 -0.0418353 0)
(0.949755 -0.0402367 0)
(0.948896 -0.0386141 0)
(0.948028 -0.0369689 0)
(0.947158 -0.0353057 0)
(0.946288 -0.0336274 0)
(0.945415 -0.0319366 0)
(0.944527 -0.0302363 0)
(0.943603 -0.0285288 0)
(0.942608 -0.0268164 0)
(0.941494 -0.0251012 0)
(0.9402 -0.0233857 0)
(0.938668 -0.0216746 0)
(0.936859 -0.0199755 0)
(0.934784 -0.0183007 0)
(0.932537 -0.0166664 0)
(0.930305 -0.0150901 0)
(0.928364 -0.0135851 0)
(0.92702 -0.0121537 0)
(0.93872 -0.0490639 0)
(0.93746 -0.0476895 0)
(0.936285 -0.0462708 0)
(0.935186 -0.0448168 0)
(0.934164 -0.0433301 0)
(0.933226 -0.0418144 0)
(0.932388 -0.0402741 0)
(0.931671 -0.0387141 0)
(0.931107 -0.0371392 0)
(0.93074 -0.0355543 0)
(0.930626 -0.0339633 0)
(0.930833 -0.0323686 0)
(0.931429 -0.030768 0)
(0.932464 -0.0291531 0)
(0.933938 -0.0275059 0)
(0.935765 -0.0257983 0)
(0.937743 -0.0239948 0)
(0.939561 -0.0220607 0)
(0.940841 -0.0199758 0)
(0.927405 -0.0614539 0)
(0.926026 -0.0592911 0)
(0.924673 -0.0570847 0)
(0.923365 -0.0548384 0)
(0.922113 -0.0525562 0)
(0.920925 -0.05024 0)
(0.919803 -0.0478909 0)
(0.91874 -0.0455099 0)
(0.917722 -0.0430972 0)
(0.916714 -0.0406526 0)
(0.915664 -0.0381753 0)
(0.914492 -0.0356654 0)
(0.913097 -0.033126 0)
(0.91137 -0.0305666 0)
(0.909226 -0.0280078 0)
(0.906658 -0.0254847 0)
(0.903792 -0.0230461 0)
(0.900934 -0.0207453 0)
(0.898544 -0.0186213 0)
(0.913985 -0.072551 0)
(0.912129 -0.0705236 0)
(0.91039 -0.068428 0)
(0.908764 -0.0662782 0)
(0.907252 -0.0640818 0)
(0.905858 -0.0618469 0)
(0.904594 -0.059582 0)
(0.903471 -0.0572957 0)
(0.90251 -0.0549964 0)
(0.901738 -0.0526919 0)
(0.901198 -0.0503894 0)
(0.900956 -0.048095 0)
(0.901099 -0.0458109 0)
(0.901733 -0.0435316 0)
(0.902958 -0.0412377 0)
(0.904811 -0.0388876 0)
(0.907187 -0.0364133 0)
(0.909772 -0.0337263 0)
(0.912017 -0.0307429 0)
(0.900364 -0.0874169 0)
(0.898267 -0.0844705 0)
(0.896258 -0.0814436 0)
(0.894359 -0.0783444 0)
(0.892582 -0.0751755 0)
(0.890937 -0.0719366 0)
(0.889425 -0.0686263 0)
(0.888042 -0.0652434 0)
(0.886774 -0.061786 0)
(0.885593 -0.0582518 0)
(0.88445 -0.0546382 0)
(0.883263 -0.0509427 0)
(0.881911 -0.0471644 0)
(0.880223 -0.0433089 0)
(0.877993 -0.0393958 0)
(0.875032 -0.0354718 0)
(0.871267 -0.0316228 0)
(0.866891 -0.027976 0)
(0.8625 -0.024676 0)
(0.885012 -0.101196 0)
(0.882243 -0.0980812 0)
(0.879654 -0.0948298 0)
(0.877243 -0.0914689 0)
(0.875007 -0.088017 0)
(0.872949 -0.0844952 0)
(0.871075 -0.0809252 0)
(0.869391 -0.0773294 0)
(0.867904 -0.0737309 0)
(0.86663 -0.0701528 0)
(0.865593 -0.0666188 0)
(0.86484 -0.0631525 0)
(0.864458 -0.0597774 0)
(0.864588 -0.0565131 0)
(0.865436 -0.0533684 0)
(0.867245 -0.0503255 0)
(0.870196 -0.0473151 0)
(0.874214 -0.0441941 0)
(0.878731 -0.0407476 0)
(0.867939 -0.118432 0)
(0.864673 -0.114155 0)
(0.861597 -0.109728 0)
(0.858738 -0.105164 0)
(0.856119 -0.100478 0)
(0.853755 -0.0956747 0)
(0.851656 -0.0907617 0)
(0.849823 -0.0857461 0)
(0.848249 -0.0806344 0)
(0.846916 -0.075432 0)
(0.84579 -0.0701426 0)
(0.84481 -0.0647678 0)
(0.843872 -0.0593065 0)
(0.842805 -0.0537565 0)
(0.841336 -0.0481205 0)
(0.839083 -0.04242 0)
(0.835601 -0.0367289 0)
(0.830585 -0.031213 0)
(0.824267 -0.0261519 0)
(0.84927 -0.135073 0)
(0.844954 -0.130152 0)
(0.840964 -0.124921 0)
(0.837312 -0.119454 0)
(0.834008 -0.113787 0)
(0.831058 -0.107969 0)
(0.828473 -0.102051 0)
(0.826259 -0.0960853 0)
(0.824419 -0.0901283 0)
(0.822953 -0.0842391 0)
(0.821866 -0.0784803 0)
(0.821173 -0.0729167 0)
(0.820915 -0.0676154 0)
(0.82119 -0.0626451 0)
(0.822196 -0.0580707 0)
(0.824284 -0.0539477 0)
(0.827967 -0.0502835 0)
(0.833737 -0.0469834 0)
(0.841637 -0.043772 0)
(0.8275 -0.155983 0)
(0.82213 -0.149393 0)
(0.817152 -0.142488 0)
(0.812621 -0.135278 0)
(0.808583 -0.127811 0)
(0.805085 -0.120124 0)
(0.802153 -0.112261 0)
(0.799809 -0.10427 0)
(0.798061 -0.0961968 0)
(0.796902 -0.0880848 0)
(0.796309 -0.0799712 0)
(0.796237 -0.0718844 0)
(0.796603 -0.0638423 0)
(0.797269 -0.0558489 0)
(0.797992 -0.0479022 0)
(0.798355 -0.0399852 0)
(0.797653 -0.0321183 0)
(0.794948 -0.0244158 0)
(0.789292 -0.0171503 0)
(0.803937 -0.177658 0)
(0.796723 -0.169872 0)
(0.790146 -0.161377 0)
(0.784233 -0.152333 0)
(0.779059 -0.142827 0)
(0.774657 -0.132953 0)
(0.771076 -0.122821 0)
(0.768337 -0.112539 0)
(0.766454 -0.102231 0)
(0.76542 -0.0920246 0)
(0.76522 -0.0820582 0)
(0.765828 -0.0724811 0)
(0.767223 -0.0634519 0)
(0.769413 -0.0551451 0)
(0.772489 -0.0477273 0)
(0.776687 -0.0413943 0)
(0.782608 -0.0362832 0)
(0.791106 -0.0324395 0)
(0.803354 -0.0298179 0)
(0.776497 -0.205376 0)
(0.767188 -0.195159 0)
(0.75856 -0.184147 0)
(0.750852 -0.17241 0)
(0.744134 -0.160007 0)
(0.738545 -0.147074 0)
(0.734149 -0.133729 0)
(0.731022 -0.120123 0)
(0.729192 -0.106406 0)
(0.728681 -0.0927323 0)
(0.729477 -0.0792485 0)
(0.731539 -0.0660836 0)
(0.73479 -0.0533433 0)
(0.739097 -0.0410814 0)
(0.744223 -0.0293471 0)
(0.749831 -0.0180651 0)
(0.755041 -0.00720691 0)
(0.758783 0.0031309 0)
(0.758981 0.0129291 0)
(0.74754 -0.236065 0)
(0.734672 -0.223999 0)
(0.72308 -0.210496 0)
(0.712686 -0.195653 0)
(0.703768 -0.179757 0)
(0.696424 -0.162962 0)
(0.690806 -0.145506 0)
(0.686982 -0.127616 0)
(0.685025 -0.109541 0)
(0.684945 -0.0915366 0)
(0.686729 -0.0738757 0)
(0.69032 -0.056848 0)
(0.695632 -0.0407585 0)
(0.702553 -0.0259838 0)
(0.711049 -0.0128409 0)
(0.720993 -0.00188363 0)
(0.733162 0.00646895 0)
(0.748117 0.0120123 0)
(0.767625 0.0140452 0)
(0.714254 -0.275155 0)
(0.697677 -0.260047 0)
(0.682074 -0.242793 0)
(0.668235 -0.223928 0)
(0.656309 -0.203457 0)
(0.646603 -0.181713 0)
(0.639247 -0.158984 0)
(0.634428 -0.135593 0)
(0.632197 -0.111873 0)
(0.632622 -0.0881709 0)
(0.635707 -0.064834 0)
(0.641424 -0.0422047 0)
(0.649698 -0.0206352 0)
(0.660425 -0.000342048 0)
(0.673249 0.0183022 0)
(0.688246 0.0354868 0)
(0.703745 0.0512079 0)
(0.719069 0.0653135 0)
(0.732069 0.0787356 0)
(0.681167 -0.320221 0)
(0.657832 -0.302143 0)
(0.636864 -0.28136 0)
(0.618178 -0.257651 0)
(0.602276 -0.231663 0)
(0.589364 -0.203842 0)
(0.579775 -0.174613 0)
(0.573542 -0.144441 0)
(0.570835 -0.113768 0)
(0.571678 -0.0830227 0)
(0.576107 -0.0526525 0)
(0.584108 -0.0231317 0)
(0.595638 0.0050829 0)
(0.610501 0.0312506 0)
(0.62889 0.0550413 0)
(0.649511 0.0750261 0)
(0.674339 0.0904623 0)
(0.702529 0.100618 0)
(0.735565 0.102192 0)
(0.642923 -0.376025 0)
(0.612964 -0.354409 0)