/*--------------------------------*- C++ -*----------------------------------*\
  =========                 |
  \\      /  F ield         | OpenFOAM: The Open Source CFD Toolbox
   \\    /   O peration     | Website:  https://openfoam.org
    \\  /    A nd           | Version:  10
     \\/     M anipulation  |
\*---------------------------------------------------------------------------*/
FoamFile
{
    format      ascii;
    class       volVectorField;
    location    "0";
    object      U;
}
// * * * * * * * * * * * * * * * * * * * * * * * * * * * * * * * * * * * * * //

dimensions      [0 1 -1 0 0 0 0];

internalField   nonuniform List<vector> 
18483
(
(0.999994 -0.000187107 0)
(0.999995 -0.000666741 0)
(0.999996 -0.00106141 0)
(0.999998 -0.00148748 0)
(1 -0.00189212 0)
(1 -0.00228199 0)
(1.00001 -0.00263934 0)
(1.00001 -0.00295164 0)
(1.00001 -0.00320792 0)
(1.00001 -0.00340343 0)
(1.00001 -0.00354376 0)
(0.999991 -0.00364806 0)
(0.99996 -0.00374429 0)
(0.999911 -0.00387143 0)
(0.999842 -0.00406677 0)
(0.999743 -0.0043376 0)
(0.999564 -0.00463291 0)
(0.999086 -0.00485694 0)
(0.997691 -0.0049177 0)
(0.994504 -0.00474519 0)
(0.989751 -0.00441335 0)
(0.985884 -0.00408639 0)
(0.985378 -0.00379297 0)
(0.987827 -0.00346138 0)
(0.991127 -0.00309476 0)
(0.993899 -0.00274887 0)
(0.995828 -0.00245103 0)
(0.997061 -0.00220523 0)
(0.997816 -0.00200547 0)
(1.00058 -0.00057437 0)
(1.0006 -0.00203267 0)
(1.00066 -0.00322591 0)
(1.00071 -0.00451064 0)
(1.00076 -0.00571964 0)
(1.00079 -0.00687914 0)
(1.00079 -0.00793713 0)
(1.00075 -0.00886217 0)
(1.00066 -0.00962658 0)
(1.00055 -0.0102184 0)
(1.00041 -0.0106342 0)
(1.0003 -0.0108793 0)
(1.00023 -0.0109523 0)
(1.00024 -0.0108068 0)
(1.00032 -0.0103798 0)
(1.0004 -0.0096589 0)
(1.00042 -0.00874688 0)
(1.00046 -0.00783724 0)
(1.00106 -0.00713199 0)
(1.00329 -0.00678993 0)
(1.00748 -0.00671885 0)
(1.01124 -0.00663452 0)
(1.01137 -0.00647286 0)
(1.00817 -0.00639599 0)
(1.00433 -0.00642962 0)
(1.00144 -0.006478 0)
(0.999618 -0.00649585 0)
(0.998548 -0.00647756 0)
(0.997923 -0.00643187 0)
(1.00174 -0.00093092 0)
(1.00181 -0.00327893 0)
(1.00197 -0.00521147 0)
(1.00212 -0.00730993 0)
(1.00227 -0.00929782 0)
(1.00236 -0.0112312 0)
(1.00235 -0.0130216 0)
(1.00224 -0.0146156 0)
(1.00202 -0.0159505 0)
(1.0017 -0.0169799 0)
(1.00131 -0.0176715 0)
(1.00087 -0.018016 0)
(1.00041 -0.0180438 0)
(0.999953 -0.0178414 0)
(0.999467 -0.0175812 0)
(0.998949 -0.0174406 0)
(0.998414 -0.0174566 0)
(0.997728 -0.0175129 0)
(0.99627 -0.0174437 0)
(0.992909 -0.0171819 0)
(0.987447 -0.0167847 0)
(0.982504 -0.0164076 0)
(0.981561 -0.0160885 0)
(0.984351 -0.0156006 0)
(0.987876 -0.0148923 0)
(0.990483 -0.0141363 0)
(0.992126 -0.0134402 0)
(0.993134 -0.0128379 0)
(0.993763 -0.0123338 0)
(1.00315 -0.00124181 0)
(1.0033 -0.0043613 0)
(1.00359 -0.00695337 0)
(1.00389 -0.00980377 0)
(1.00418 -0.0125418 0)
(1.00436 -0.0152569 0)
(1.0044 -0.0178265 0)
(1.00424 -0.0201755 0)
(1.00385 -0.0222083 0)
(1.00322 -0.0238581 0)
(1.00239 -0.0250892 0)
(1.00136 -0.0258941 0)
(1.00021 -0.0262991 0)
(0.999005 -0.026344 0)
(0.997822 -0.0259973 0)
(0.996728 -0.0251101 0)
(0.995759 -0.0236143 0)
(0.995106 -0.0216745 0)
(0.995594 -0.0196531 0)
(0.998718 -0.0179126 0)
(1.00467 -0.0166557 0)
(1.0098 -0.0158334 0)
(1.0095 -0.015231 0)
(1.00435 -0.0148734 0)
(0.998638 -0.0147608 0)
(0.994613 -0.0146815 0)
(0.992173 -0.0145292 0)
(0.990739 -0.0143028 0)
(0.989885 -0.0140238 0)
(1.00464 -0.00150665 0)
(1.00488 -0.00528102 0)
(1.00532 -0.008448 0)
(1.00581 -0.0119752 0)
(1.00629 -0.0154163 0)
(1.00664 -0.0188976 0)
(1.00677 -0.022272 0)
(1.0066 -0.0254521 0)
(1.00609 -0.0283151 0)
(1.00521 -0.0307654 0)
(1.00401 -0.0327268 0)
(1.00256 -0.0341424 0)
(1.00096 -0.0349942 0)
(0.999289 -0.0353188 0)
(0.99759 -0.0352296 0)
(0.995854 -0.0349796 0)
(0.994068 -0.0348902 0)
(0.992245 -0.0350604 0)
(0.990005 -0.035218 0)
(0.986175 -0.0349686 0)
(0.980109 -0.0340838 0)
(0.974519 -0.0326688 0)
(0.973779 -0.0311274 0)
(0.977473 -0.0295955 0)
(0.981272 -0.0280106 0)
(0.983272 -0.026538 0)
(0.984029 -0.0252806 0)
(0.984207 -0.0242278 0)
(0.984146 -0.0233556 0)
(1.00617 -0.00173005 0)
(1.00652 -0.00605258 0)
(1.00713 -0.00971025 0)
(1.00785 -0.0138287 0)
(1.00859 -0.0179037 0)
(1.00918 -0.0221043 0)
(1.0095 -0.026268 0)
(1.00944 -0.0302982 0)
(1.00891 -0.0340358 0)
(1.0079 -0.0373367 0)
(1.00644 -0.0400737 0)
(1.00459 -0.0421649 0)
(1.00242 -0.0436007 0)
(1.00001 -0.0444327 0)
(0.997496 -0.044712 0)
(0.994994 -0.0443919 0)
(0.992661 -0.0432803 0)
(0.99067 -0.0412946 0)
(0.989584 -0.0387546 0)
(0.990807 -0.0362102 0)
(0.995276 -0.0341602 0)
(1.00003 -0.0328143 0)
(0.999543 -0.0318463 0)
(0.993498 -0.0310196 0)
(0.986978 -0.0304508 0)
(0.982711 -0.0299905 0)
(0.980165 -0.0294902 0)
(0.978566 -0.0289544 0)
(0.977502 -0.0283985 0)
(1.00773 -0.00191636 0)
(1.0082 -0.00668979 0)
(1.00902 -0.0107554 0)
(1.01001 -0.0153727 0)
(1.01106 -0.0199945 0)
(1.01196 -0.0248386 0)
(1.01257 -0.029735 0)
(1.01271 -0.0345851 0)
(1.01227 -0.0392056 0)
(1.01118 -0.0434267 0)
(1.00941 -0.047101 0)
(1.00701 -0.0501285 0)
(1.00411 -0.052451 0)
(1.00088 -0.0540279 0)
(0.997512 -0.0548542 0)
(0.99411 -0.0550614 0)
(0.990701 -0.0550693 0)
(0.987227 -0.0553359 0)
(0.983437 -0.05582 0)
(0.978426 -0.055978 0)
(0.971326 -0.0552446 0)
(0.964289 -0.0534376 0)
(0.962195 -0.0511069 0)
(0.96557 -0.0488347 0)
(0.969322 -0.0465565 0)
(0.970807 -0.0443702 0)
(0.970944 -0.0424744 0)
(0.970596 -0.0408622 0)
(0.970093 -0.0395102 0)
(1.0093 -0.00206907 0)
(1.0099 -0.007205 0)
(1.01093 -0.011599 0)
(1.01221 -0.0166213 0)
(1.01361 -0.0216942 0)
(1.01488 -0.0270884 0)
(1.01585 -0.032638 0)
(1.01629 -0.0382596 0)
(1.01602 -0.0437669 0)
(1.01493 -0.048977 0)
(1.01298 -0.0537008 0)
(1.01025 -0.0577611 0)
(1.00691 -0.0610059 0)
(1.00314 -0.0633431 0)
(0.999086 -0.0647832 0)
(0.994872 -0.0653707 0)
(0.990684 -0.0650236 0)
(0.986814 -0.0634837 0)
(0.983709 -0.0607636 0)
(0.982367 -0.0575342 0)
(0.984042 -0.0547198 0)
(0.987253 -0.0529352 0)
(0.986541 -0.051916 0)
(0.979878 -0.0509128 0)
(0.972262 -0.0500106 0)
(0.967396 -0.0492919 0)
(0.964516 -0.0485163 0)
(0.962583 -0.0476931 0)
(0.961198 -0.0468538 0)
(1.01083 -0.00219135 0)
(1.01156 -0.00761015 0)
(1.01281 -0.0122589 0)
(1.01439 -0.0175962 0)
(1.01615 -0.0230241 0)
(1.01784 -0.0288693 0)
(1.01922 -0.0349814 0)
(1.02004 -0.0413038 0)
(1.02008 -0.0476541 0)
(1.01918 -0.0538301 0)
(1.01729 -0.0595923 0)
(1.01443 -0.0647073 0)
(1.0107 -0.068993 0)
(1.00623 -0.0723481 0)
(1.00119 -0.0747505 0)
(0.995763 -0.0762053 0)
(0.99015 -0.0768806 0)
(0.984448 -0.0772874 0)
(0.97861 -0.0779182 0)
(0.972164 -0.0785473 0)
(0.964208 -0.0783386 0)
(0.955646 -0.0766589 0)
(0.950815 -0.0738088 0)
(0.95205 -0.0708676 0)
(0.954932 -0.0680732 0)
(0.955581 -0.065238 0)
(0.954823 -0.062696 0)
(0.953764 -0.0605061 0)
(0.952671 -0.0586293 0)
(1.0123 -0.0022865 0)
(1.01315 -0.00791777 0)
(1.01461 -0.0127553 0)
(1.01648 -0.0183261 0)
(1.01861 -0.0240194 0)
(1.02073 -0.030218 0)
(1.02259 -0.0367939 0)
(1.02388 -0.0437233 0)
(1.02435 -0.0508357 0)
(1.02379 -0.0579299 0)
(1.02205 -0.0647567 0)
(1.01908 -0.0710714 0)
(1.01492 -0.0766591 0)
(1.00974 -0.0813356 0)
(1.00381 -0.0849641 0)
(0.997402 -0.087451 0)
(0.990798 -0.0887223 0)
(0.984356 -0.0885603 0)
(0.978568 -0.0866888 0)
(0.974175 -0.0833879 0)
(0.972416 -0.0797082 0)
(0.973285 -0.0768953 0)
(0.972439 -0.0754279 0)
(0.965759 -0.0742451 0)
(0.956744 -0.0728462 0)
(0.950516 -0.0716932 0)
(0.946783 -0.0705343 0)
(0.944081 -0.0692711 0)
(0.942015 -0.0680005 0)
(1.01368 -0.00235821 0)
(1.01464 -0.00814169 0)
(1.01629 -0.0131116 0)
(1.01844 -0.0188455 0)
(1.02094 -0.0247244 0)
(1.02351 -0.0311853 0)
(1.02587 -0.0381267 0)
(1.0277 -0.0455647 0)
(1.02869 -0.053359 0)
(1.02856 -0.0613363 0)
(1.02709 -0.0692578 0)
(1.02419 -0.0768527 0)
(1.01991 -0.0838252 0)
(1.01441 -0.089874 0)
(1.00794 -0.0947708 0)
(1.00071 -0.0983793 0)
(0.992923 -0.100682 0)
(0.984759 -0.101968 0)
(0.976295 -0.102953 0)
(0.967505 -0.10408 0)
(0.958001 -0.104773 0)
(0.947747 -0.103889 0)
(0.939512 -0.100928 0)
(0.937039 -0.0971842 0)
(0.938194 -0.093754 0)
(0.937867 -0.0902388 0)
(0.935875 -0.0868871 0)
(0.933757 -0.0839937 0)
(0.931772 -0.0814633 0)
(1.01495 -0.00241037 0)
(1.01601 -0.00829639 0)
(1.01784 -0.0133522 0)
(1.02026 -0.019191 0)
(1.02311 -0.0251876 0)
(1.02613 -0.0318303 0)
(1.02901 -0.0390476 0)
(1.03142 -0.0469016 0)
(1.033 -0.0552942 0)
(1.03342 -0.0640875 0)
(1.03244 -0.0730493 0)
(1.02991 -0.0818821 0)
(1.02581 -0.0902475 0)
(1.02019 -0.0978072 0)
(1.01315 -0.104302 0)
(1.00491 -0.109558 0)
(0.995778 -0.113457 0)
(0.986172 -0.115777 0)
(0.976794 -0.116039 0)
(0.968604 -0.113975 0)
(0.962778 -0.110278 0)
(0.960123 -0.106575 0)
(0.958112 -0.104378 0)
(0.951456 -0.103039 0)
(0.940789 -0.101112 0)
(0.932106 -0.0991828 0)
(0.926767 -0.0974128 0)
(0.922778 -0.0954331 0)
(0.919575 -0.0934429 0)
(1.0161 -0.00244684 0)
(1.01727 -0.00839596 0)
(1.01926 -0.013501 0)
(1.02193 -0.019398 0)
(1.02512 -0.0254567 0)
(1.02857 -0.0322134 0)
(1.03197 -0.0396275 0)
(1.03498 -0.0478072 0)
(1.03722 -0.0566991 0)
(1.03834 -0.0662039 0)
(1.03802 -0.0761125 0)
(1.03603 -0.0861432 0)
(1.03223 -0.0959702 0)
(1.02656 -0.105233 0)
(1.01913 -0.113573 0)
(1.01019 -0.120642 0)
(1.00012 -0.126129 0)
(0.989251 -0.129843 0)
(0.977869 -0.132182 0)
(0.966126 -0.134202 0)
(0.954054 -0.136194 0)
(0.941326 -0.136851 0)
(0.929036 -0.134633 0)
(0.921205 -0.130261 0)
(0.91907 -0.125924 0)
(0.917471 -0.121726 0)
(0.913892 -0.117368 0)
(0.910165 -0.113533 0)
(0.906874 -0.110162 0)
(1.01716 -0.00247122 0)
(1.0184 -0.00845323 0)
(1.02055 -0.0135793 0)
(1.02344 -0.0194989 0)
(1.02694 -0.0255758 0)
(1.03081 -0.0323906 0)
(1.03472 -0.0399316 0)
(1.03835 -0.0483497 0)
(1.04129 -0.0576382 0)
(1.04317 -0.067747 0)
(1.0436 -0.0785161 0)
(1.04227 -0.0897037 0)
(1.03895 -0.100995 0)
(1.03357 -0.111985 0)
(1.02617 -0.122217 0)
(1.0169 -0.131252 0)
(1.00597 -0.138785 0)
(0.993687 -0.144594 0)
(0.980651 -0.14834 0)
(0.968103 -0.149363 0)
(0.95751 -0.147381 0)
(0.949999 -0.143603 0)
(0.944842 -0.140488 0)
(0.93734 -0.138985 0)
(0.92482 -0.136983 0)
(0.912312 -0.134128 0)
(0.904037 -0.131508 0)
(0.898092 -0.128628 0)
(0.893172 -0.125594 0)
(1.01811 -0.00248661 0)
(1.01943 -0.0084792 0)
(1.02171 -0.0136057 0)
(1.02481 -0.0195212 0)
(1.0286 -0.0255827 0)
(1.03285 -0.0324106 0)
(1.03726 -0.0400183 0)
(1.04149 -0.0485962 0)
(1.04515 -0.0581877 0)
(1.04781 -0.0687992 0)
(1.04907 -0.0803268 0)
(1.04855 -0.0925674 0)
(1.046 -0.105217 0)
(1.04124 -0.117869 0)
(1.03416 -0.13006 0)
(1.02475 -0.141317 0)
(1.01318 -0.15123 0)
(0.999836 -0.159336 0)
(0.985336 -0.165274 0)
(0.970236 -0.169579 0)
(0.954683 -0.173456 0)
(0.938444 -0.176609 0)
(0.921412 -0.176755 0)
(0.906632 -0.172737 0)
(0.898607 -0.167205 0)
(0.894658 -0.162132 0)
(0.889174 -0.15662 0)
(0.882975 -0.151354 0)
(0.877701 -0.146772 0)
(1.01898 -0.00249553 0)
(1.02036 -0.00848282 0)
(1.02276 -0.0135949 0)
(1.02604 -0.0194872 0)
(1.03009 -0.0255083 0)
(1.0347 -0.0323143 0)
(1.03957 -0.0399392 0)
(1.04438 -0.0486101 0)
(1.04875 -0.0584206 0)
(1.05222 -0.0694306 0)
(1.05437 -0.0815887 0)
(1.05482 -0.0947373 0)
(1.05323 -0.108614 0)
(1.04928 -0.122864 0)
(1.04275 -0.137045 0)
(1.03352 -0.150623 0)
(1.02174 -0.163058 0)
(1.0077 -0.173835 0)
(0.991856 -0.182472 0)
(0.975155 -0.188406 0)
(0.959223 -0.19068 0)
(0.945562 -0.188985 0)
(0.934737 -0.185606 0)
(0.924452 -0.183833 0)
(0.909868 -0.182547 0)
(0.892309 -0.179205 0)
(0.878689 -0.175399 0)
(0.869476 -0.1715 0)
(0.861878 -0.167016 0)
(1.01976 -0.00249995 0)
(1.02119 -0.00847103 0)
(1.0237 -0.0135588 0)
(1.02714 -0.0194143 0)
(1.03144 -0.0253773 0)
(1.03636 -0.0321353 0)
(1.04167 -0.0397376 0)
(1.04704 -0.0484456 0)
(1.05208 -0.0583974 0)
(1.05637 -0.0697011 0)
(1.05947 -0.0823584 0)
(1.06095 -0.0962728 0)
(1.06039 -0.111245 0)
(1.05742 -0.126977 0)
(1.05172 -0.143051 0)
(1.04312 -0.158906 0)
(1.03155 -0.173968 0)
(1.01717 -0.187688 0)
(1.00042 -0.199417 0)
(0.982054 -0.208728 0)
(0.962644 -0.216355 0)
(0.941935 -0.223287 0)
(0.919373 -0.227936 0)
(0.896435 -0.226814 0)
(0.879056 -0.2208 0)
(0.869757 -0.214477 0)
(0.861714 -0.207949 0)
(0.851827 -0.200638 0)
(0.843141 -0.19411 0)
(1.02047 -0.00250132 0)
(1.02195 -0.0084491 0)
(1.02455 -0.0135062 0)
(1.02813 -0.0193156 0)
(1.03265 -0.0252089 0)
(1.03787 -0.0319001 0)
(1.04357 -0.0394489 0)
(1.04945 -0.0481471 0)
(1.05515 -0.0581714 0)
(1.06024 -0.0696747 0)
(1.06428 -0.0827145 0)
(1.0668 -0.0972597 0)
(1.06735 -0.113172 0)
(1.06553 -0.130206 0)
(1.06096 -0.147996 0)
(1.05331 -0.16603 0)
(1.04234 -0.183741 0)
(1.02811 -0.200544 0)
(1.01095 -0.215738 0)
(0.991516 -0.228535 0)
(0.970864 -0.237842 0)
(0.950562 -0.24202 0)
(0.931983 -0.241095 0)
(0.915707 -0.239303 0)
(0.897963 -0.239557 0)
(0.874791 -0.237705 0)
(0.852267 -0.232812 0)
(0.836653 -0.227715 0)
(0.824613 -0.221533 0)
(1.02111 -0.00250071 0)
(1.02263 -0.00842093 0)
(1.02532 -0.0134439 0)
(1.02902 -0.0192016 0)
(1.03373 -0.0250176 0)
(1.03921 -0.0316292 0)
(1.04528 -0.0391008 0)
(1.05164 -0.0477517 0)
(1.05796 -0.0577921 0)
(1.06381 -0.0694163 0)
(1.06874 -0.0827344 0)
(1.07231 -0.0977748 0)
(1.07403 -0.114454 0)
(1.07349 -0.132587 0)
(1.07022 -0.151895 0)
(1.06377 -0.171945 0)
(1.05379 -0.192193 0)
(1.04022 -0.212057 0)
(1.02325 -0.230842 0)
(1.00329 -0.247691 0)
(0.980745 -0.26211 0)
(0.955499 -0.274945 0)
(0.927046 -0.286591 0)
(0.895724 -0.293254 0)
(0.865805 -0.290643 0)
(0.845179 -0.283168 0)
(0.831976 -0.275915 0)
(0.817105 -0.266787 0)
(0.802189 -0.257268 0)
(1.0217 -0.00249886 0)
(1.02326 -0.00838934 0)
(1.02602 -0.0133768 0)
(1.02982 -0.0190798 0)
(1.03471 -0.0248146 0)
(1.04042 -0.0313384 0)
(1.04681 -0.0387157 0)
(1.05362 -0.0472911 0)
(1.0605 -0.0573034 0)
(1.06706 -0.0689834 0)
(1.07287 -0.082486 0)
(1.07746 -0.0978919 0)
(1.08038 -0.115174 0)
(1.08115 -0.134215 0)
(1.07927 -0.154825 0)
(1.07423 -0.176656 0)
(1.0656 -0.199229 0)
(1.05316 -0.222022 0)
(1.03696 -0.244431 0)
(1.01719 -0.265626 0)
(0.994117 -0.284397 0)
(0.968449 -0.298613 0)
(0.941803 -0.305651 0)
(0.91632 -0.306829 0)
(0.89256 -0.309155 0)
(0.864194 -0.312361 0)
(0.829876 -0.309232 0)
(0.801455 -0.302851 0)
(0.781379 -0.295395 0)
(1.02223 -0.00249626 0)
(1.02382 -0.00835632 0)
(1.02664 -0.0133084 0)
(1.03054 -0.0189557 0)
(1.03558 -0.0246081 0)
(1.0415 -0.0310395 0)
(1.04819 -0.038311 0)
(1.0554 -0.0467909 0)
(1.0628 -0.056741 0)
(1.07003 -0.068423 0)
(1.07665 -0.082029 0)
(1.08224 -0.0976879 0)
(1.08632 -0.115429 0)
(1.08839 -0.135198 0)
(1.08796 -0.15688 0)
(1.08448 -0.18022 0)
(1.07746 -0.204839 0)
(1.06657 -0.230318 0)
(1.05172 -0.256156 0)
(1.03292 -0.281586 0)
(1.00992 -0.305497 0)
(0.982121 -0.327338 0)
(0.948952 -0.348474 0)
(0.910458 -0.368136 0)
(0.867838 -0.377857 0)
(0.828834 -0.373665 0)
(0.802611 -0.36583 0)
(0.781064 -0.35708 0)
(0.756267 -0.344245 0)
(1.02271 -0.00249327 0)
(1.02432 -0.00832323 0)
(1.02721 -0.0132409 0)
(1.03118 -0.0188331 0)
(1.03636 -0.0244039 0)
(1.04246 -0.0307415 0)
(1.04942 -0.0379006 0)
(1.05699 -0.0462714 0)
(1.06487 -0.0561334 0)
(1.07272 -0.0677748 0)
(1.08011 -0.0814196 0)
(1.08663 -0.0972391 0)
(1.09182 -0.115315 0)
(1.09517 -0.135643 0)
(1.0962 -0.158174 0)
(1.09436 -0.18275 0)
(1.08911 -0.209104 0)
(1.08007 -0.236946 0)
(1.06705 -0.265905 0)
(1.04985 -0.295423 0)
(1.02793 -0.324572 0)
(1.00067 -0.351591 0)
(0.968897 -0.373073 0)
(0.934798 -0.385128 0)
(0.900991 -0.391326 0)
(0.866158 -0.402058 0)
(0.821165 -0.409568 0)
(0.771571 -0.404632 0)
(0.734489 -0.396553 0)
(1.02314 -0.00249013 0)
(1.02477 -0.00829104 0)
(1.02771 -0.0131761 0)
(1.03175 -0.0187147 0)
(1.03705 -0.0242064 0)
(1.04331 -0.030451 0)
(1.0505 -0.0374949 0)
(1.0584 -0.0457482 0)
(1.06672 -0.0555033 0)
(1.07513 -0.0670722 0)
(1.08324 -0.0807065 0)
(1.09063 -0.0966113 0)
(1.09686 -0.114913 0)
(1.10145 -0.135651 0)
(1.10391 -0.158833 0)
(1.10371 -0.184389 0)
(1.10031 -0.212158 0)
(1.09333 -0.241987 0)
(1.08251 -0.273667 0)
(1.06751 -0.306806 0)
(1.04762 -0.340672 0)
(1.0215 -0.374001 0)
(0.987695 -0.406715 0)
(0.94587 -0.441567 0)
(0.895411 -0.475286 0)
(0.836511 -0.490502 0)
(0.783424 -0.485192 0)
(0.746736 -0.478528 0)
(0.710036 -0.466384 0)
(1.02353 -0.00248702 0)
(1.02518 -0.0082604 0)
(1.02815 -0.0131149 0)
(1.03225 -0.0186023 0)
(1.03766 -0.0240187 0)
(1.04405 -0.0301728 0)
(1.05146 -0.0371018 0)
(1.05965 -0.0452338 0)
(1.06836 -0.0548702 0)
(1.07729 -0.0663436 0)
(1.08605 -0.0799301 0)
(1.09423 -0.0958608 0)
(1.10144 -0.114299 0)
(1.1072 -0.135322 0)
(1.11104 -0.158985 0)
(1.11243 -0.185292 0)
(1.11088 -0.214173 0)
(1.10605 -0.245602 0)
(1.09769 -0.279547 0)
(1.08532 -0.315783 0)
(1.06805 -0.353948 0)
(1.04447 -0.393373 0)
(1.01345 -0.43204 0)
(0.976085 -0.464769 0)
(0.933792 -0.485413 0)
(0.888757 -0.502489 0)
(0.836505 -0.530214 0)
(0.764436 -0.543611 0)
(0.691428 -0.535245 0)
(1.02387 -0.00248403 0)
(1.02553 -0.00823173 0)
(1.02855 -0.0130579 0)
(1.03269 -0.0184972 0)
(1.03819 -0.0238425 0)
(1.04471 -0.02991 0)
(1.05231 -0.036727 0)
(1.06075 -0.0447376 0)
(1.06981 -0.054249 0)
(1.0792 -0.0656118 0)
(1.08855 -0.0791224 0)
(1.09747 -0.0950334 0)
(1.10558 -0.113537 0)
(1.11243 -0.134744 0)
(1.11755 -0.158745 0)
(1.12047 -0.185603 0)
(1.12072 -0.215325 0)
(1.11804 -0.247985 0)
(1.11224 -0.283724 0)
(1.10279 -0.322512 0)
(1.08866 -0.36417 0)
(1.06867 -0.408467 0)
(1.04091 -0.45466 0)
(1.00225 -0.503544 0)
(0.951881 -0.561321 0)
(0.887052 -0.621478 0)
(0.802314 -0.647531 0)
(0.722138 -0.642121 0)
(0.664041 -0.637456 0)
(1.02417 -0.00248122 0)
(1.02585 -0.00820524 0)
(1.02889 -0.0130055 0)
(1.03308 -0.0183999 0)
(1.03866 -0.0236792 0)
(1.04528 -0.0296648 0)
(1.05305 -0.0363744 0)
(1.06171 -0.0442664 0)
(1.07109 -0.0536512 0)
(1.08088 -0.0648948 0)
(1.09077 -0.0783103 0)
(1.10036 -0.0941681 0)
(1.10929 -0.112684 0)
(1.11714 -0.133995 0)
(1.12344 -0.158218 0)
(1.12779 -0.185459 0)
(1.12978 -0.215793 0)
(1.12917 -0.249365 0)
(1.12588 -0.286444 0)
(1.11952 -0.327219 0)
(1.10888 -0.37166 0)
(1.09275 -0.42 0)
(1.07003 -0.472968 0)
(1.03858 -0.528845 0)
(0.997175 -0.578993 0)
(0.945694 -0.61325 0)
(0.886501 -0.654739 0)
(0.803272 -0.721376 0)
(0.676292 -0.738567 0)
(1.02444 -0.00247862 0)
(1.02613 -0.00818106 0)
(1.0292 -0.0129576 0)
(1.03343 -0.0183107 0)
(1.03907 -0.0235293 0)
(1.04579 -0.0294382 0)
(1.05369 -0.0360465 0)
(1.06255 -0.0438247 0)
(1.07221 -0.0530847 0)
(1.08237 -0.0642057 0)
(1.09273 -0.0775139 0)
(1.10292 -0.0932955 0)
(1.11259 -0.111783 0)
(1.12134 -0.133136 0)
(1.12875 -0.15749 0)
(1.13441 -0.184979 0)
(1.13801 -0.215733 0)
(1.13937 -0.249955 0)
(1.13846 -0.287974 0)
(1.13511 -0.330176 0)
(1.1282 -0.376775 0)
(1.11629 -0.428012 0)
(1.0993 -0.485189 0)
(1.07509 -0.549326 0)
(1.03424 -0.621394 0)
(0.976471 -0.716662 0)
(0.901977 -0.834745 0)
(0.769949 -0.893598 0)
(0.608138 -0.884171 0)
(1.02468 -0.00247623 0)
(1.02638 -0.00815918 0)
(1.02947 -0.0129144 0)
(1.03373 -0.0182297 0)
(1.03943 -0.0233928 0)
(1.04623 -0.0292309 0)
(1.05426 -0.0357448 0)
(1.06329 -0.0434155 0)
(1.07319 -0.0525552 0)
(1.08367 -0.0635544 0)
(1.09445 -0.0767496 0)
(1.10518 -0.0924402 0)
(1.11552 -0.110872 0)
(1.12508 -0.132221 0)
(1.13348 -0.156636 0)
(1.14034 -0.18427 0)
(1.14541 -0.215291 0)
(1.14859 -0.24995 0)
(1.14992 -0.288602 0)
(1.14934 -0.331721 0)
(1.14616 -0.379829 0)
(1.13881 -0.433204 0)
(1.12696 -0.493161 0)
(1.11107 -0.563938 0)
(1.08665 -0.646212 0)
(1.04758 -0.722541 0)
(0.988236 -0.776624 0)
(0.912853 -0.884056 0)
(0.749937 -1.04919 0)
(1.02489 -0.00247406 0)
(1.0266 -0.00813957 0)
(1.02971 -0.0128755 0)
(1.034 -0.0181567 0)
(1.03975 -0.0232694 0)
(1.04661 -0.0290427 0)
(1.05475 -0.0354697 0)
(1.06393 -0.0430401 0)
(1.07404 -0.0520658 0)
(1.08482 -0.0629468 0)
(1.09597 -0.0760279 0)
(1.10717 -0.0916193 0)
(1.1181 -0.109977 0)
(1.12839 -0.131288 0)
(1.13767 -0.155713 0)
(1.14561 -0.183414 0)
(1.15199 -0.214581 0)
(1.15685 -0.249504 0)
(1.16024 -0.288555 0)
(1.16217 -0.332198 0)
(1.16239 -0.38117 0)
(1.15968 -0.43605 0)
(1.15317 -0.497644 0)
(1.14549 -0.570341 0)
(1.13547 -0.658632 0)
(1.10148 -0.75703 0)
(1.04395 -0.904318 0)
(0.981389 -1.16947 0)
(0.70393 -1.2768 0)
(0.998268 -0.00184115 0)
(0.998544 -0.00169158 0)
(0.998691 -0.00154222 0)
(0.998715 -0.0013923 0)
(0.998612 -0.00124166 0)
(0.998366 -0.00109057 0)
(0.997952 -0.000940151 0)
(0.997339 -0.000792656 0)
(0.99649 -0.000651534 0)
(0.995376 -0.000521483 0)
(0.993979 -0.000408286 0)
(0.992309 -0.00031838 0)
(0.990407 -0.000258104 0)
(0.988355 -0.000232673 0)
(0.986278 -0.000245021 0)
(0.984333 -0.000294733 0)
(0.982695 -0.000377349 0)
(0.981533 -0.000484303 0)
(0.980976 -0.000603596 0)
(0.997552 -0.00637301 0)
(0.997318 -0.00631098 0)
(0.997181 -0.00624977 0)
(0.997144 -0.00619186 0)
(0.997224 -0.00613716 0)
(0.997455 -0.00608499 0)
(0.997885 -0.00603378 0)
(0.998574 -0.00598056 0)
(0.999587 -0.00592077 0)
(1.00098 -0.00584812 0)
(1.0028 -0.00575463 0)
(1.00503 -0.00563108 0)
(1.00763 -0.005468 0)
(1.01047 -0.00525708 0)
(1.01336 -0.004993 0)
(1.01607 -0.0046752 0)
(1.01832 -0.00430912 0)
(1.01986 -0.00390639 0)
(1.02049 -0.00348373 0)
(0.994168 -0.011911 0)
(0.99445 -0.0115204 0)
(0.994642 -0.0111263 0)
(0.994739 -0.0107287 0)
(0.994722 -0.010329 0)
(0.99456 -0.00992767 0)
(0.994206 -0.00952493 0)
(0.993601 -0.00912124 0)
(0.992683 -0.00871748 0)
(0.991387 -0.00831512 0)
(0.989668 -0.0079163 0)
(0.987517 -0.00752377 0)
(0.984977 -0.00714039 0)
(0.982159 -0.00676837 0)
(0.97925 -0.00640824 0)
(0.976498 -0.00605798 0)
(0.974183 -0.00571254 0)
(0.972568 -0.0053642 0)
(0.971852 -0.00500397 0)
(0.989358 -0.0137215 0)
(0.989003 -0.0134033 0)
(0.988762 -0.0130618 0)
(0.988625 -0.0127017 0)
(0.988602 -0.0123241 0)
(0.988717 -0.0119308 0)
(0.989011 -0.0115238 0)
(0.98954 -0.0111051 0)
(0.990366 -0.0106762 0)
(0.991553 -0.0102383 0)
(0.993141 -0.00979177 0)
(0.995136 -0.00933606 0)
(0.997484 -0.00887028 0)
(1.00006 -0.00839358 0)
(1.00266 -0.00790623 0)
(1.00502 -0.00741058 0)
(1.00687 -0.00691163 0)
(1.00796 -0.00641669 0)
(1.00811 -0.00593403 0)
(0.983997 -0.0226235 0)
(0.983808 -0.0219459 0)
(0.983579 -0.0212609 0)
(0.98331 -0.0205676 0)
(0.982986 -0.0198675 0)
(0.98258 -0.0191612 0)
(0.982051 -0.0184493 0)
(0.981345 -0.0177325 0)
(0.980398 -0.0170122 0)
(0.979145 -0.0162901 0)
(0.977532 -0.0155691 0)
(0.975537 -0.014853 0)
(0.973193 -0.0141468 0)
(0.970607 -0.0134555 0)
(0.967966 -0.012783 0)
(0.965525 -0.0121308 0)
(0.963569 -0.0114964 0)
(0.962356 -0.010873 0)
(0.962055 -0.0102505 0)
(0.976752 -0.0278484 0)
(0.976166 -0.0272975 0)
(0.97568 -0.0267252 0)
(0.975289 -0.0261352 0)
(0.975007 -0.025527 0)
(0.974856 -0.0249009 0)
(0.974876 -0.0242578 0)
(0.97512 -0.0235986 0)
(0.975651 -0.0229239 0)
(0.976536 -0.0222334 0)
(0.977827 -0.0215254 0)
(0.979542 -0.0207958 0)
(0.98164 -0.0200383 0)
(0.984004 -0.0192447 0)
(0.986427 -0.0184066 0)
(0.988631 -0.0175178 0)
(0.99031 -0.0165774 0)
(0.991188 -0.0155915 0)
(0.991089 -0.0145737 0)
(0.969572 -0.0383669 0)
(0.969046 -0.0373043 0)
(0.968498 -0.0362289 0)
(0.967931 -0.0351393 0)
(0.967337 -0.0340367 0)
(0.966698 -0.0329206 0)
(0.965979 -0.0317898 0)
(0.965133 -0.0306431 0)
(0.964095 -0.0294794 0)
(0.962792 -0.0282984 0)
(0.961148 -0.0271022 0)
(0.959114 -0.0258961 0)
(0.956687 -0.0246896 0)
(0.953945 -0.0234967 0)
(0.951064 -0.0223336 0)
(0.948316 -0.0212158 0)
(0.946034 -0.0201529 0)
(0.944543 -0.0191443 0)
(0.944069 -0.0181774 0)
(0.960146 -0.0460283 0)
(0.959258 -0.045204 0)
(0.958451 -0.0443477 0)
(0.957718 -0.0434638 0)
(0.957066 -0.0425514 0)
(0.95651 -0.0416108 0)
(0.956082 -0.0406428 0)
(0.955827 -0.0396493 0)
(0.955807 -0.0386316 0)
(0.9561 -0.037591 0)
(0.956783 -0.0365262 0)
(0.957922 -0.0354318 0)
(0.959533 -0.0342966 0)
(0.961554 -0.0331021 0)
(0.963816 -0.0318241 0)
(0.966034 -0.0304367 0)
(0.967846 -0.0289205 0)
(0.968879 -0.0272706 0)
(0.968851 -0.0255036 0)
(0.951651 -0.0570186 0)
(0.950674 -0.0555017 0)
(0.949688 -0.0539495 0)
(0.948699 -0.0523615 0)
(0.947707 -0.0507394 0)
(0.9467 -0.0490827 0)
(0.945657 -0.0473902 0)
(0.94454 -0.0456601 0)
(0.94329 -0.0438902 0)
(0.941829 -0.0420788 0)
(0.940056 -0.0402262 0)
(0.937871 -0.0383376 0)
(0.935197 -0.036426 0)
(0.932027 -0.0345147 0)
(0.92847 -0.0326378 0)
(0.924789 -0.0308353 0)
(0.92139 -0.0291445 0)
(0.918761 -0.0275861 0)
(0.917336 -0.0261531 0)
(0.940363 -0.0667551 0)
(0.938905 -0.0655106 0)
(0.937515 -0.0642119 0)
(0.936186 -0.0628656 0)
(0.934919 -0.0614716 0)
(0.933721 -0.0600315 0)
(0.932614 -0.0585478 0)
(0.931631 -0.0570241 0)
(0.930825 -0.0554651 0)
(0.930276 -0.0538763 0)
(0.930084 -0.0522621 0)
(0.93037 -0.0506236 0)
(0.931239 -0.0489538 0)
(0.932744 -0.0472328 0)
(0.934824 -0.0454241 0)
(0.937247 -0.0434765 0)
(0.939601 -0.0413343 0)
(0.941342 -0.0389559 0)
(0.941932 -0.0363372 0)
(0.929979 -0.0792547 0)
(0.928295 -0.0771485 0)
(0.926619 -0.0749718 0)
(0.924961 -0.0727261 0)
(0.923325 -0.0704134 0)
(0.921711 -0.0680336 0)
(0.920111 -0.0655862 0)
(0.918506 -0.0630707 0)
(0.916859 -0.0604858 0)
(0.915104 -0.0578299 0)
(0.913143 -0.0551017 0)
(0.910839 -0.0523028 0)
(0.908032 -0.049443 0)
(0.904581 -0.0465462 0)
(0.900434 -0.0436583 0)
(0.89572 -0.040849 0)
(0.890832 -0.0382034 0)
(0.886435 -0.0357995 0)
(0.883326 -0.0336753 0)
(0.91696 -0.0915152 0)
(0.914609 -0.0895866 0)
(0.912337 -0.0875681 0)
(0.910136 -0.0854719 0)
(0.908009 -0.0833056 0)
(0.905962 -0.0810778 0)
(0.904009 -0.0787985 0)
(0.902177 -0.0764785 0)
(0.900502 -0.0741297 0)
(0.899048 -0.0717653 0)
(0.897912 -0.0693997 0)
(0.897232 -0.0670463 0)
(0.897188 -0.0647136 0)
(0.897968 -0.0623965 0)
(0.899706 -0.060064 0)
(0.902365 -0.0576481 0)
(0.905617 -0.0550421 0)
(0.908789 -0.0521214 0)
(0.91095 -0.048791 0)
(0.903943 -0.107155 0)
(0.901234 -0.104267 0)
(0.898581 -0.101267 0)
(0.896003 -0.0981621 0)
(0.893515 -0.0949555 0)
(0.891126 -0.091648 0)
(0.888841 -0.0882404 0)
(0.886659 -0.0847336 0)
(0.884565 -0.0811283 0)
(0.882522 -0.0774241 0)
(0.880458 -0.0736187 0)
(0.878246 -0.069708 0)
(0.87569 -0.065689 0)
(0.872528 -0.0615674 0)
(0.868477 -0.057372 0)
(0.863355 -0.0531734 0)
(0.857269 -0.0490966 0)
(0.850817 -0.0453091 0)
(0.845153 -0.0419699 0)
(0.889172 -0.122679 0)
(0.885595 -0.11973 0)
(0.882162 -0.116617 0)
(0.878874 -0.113364 0)
(0.875733 -0.109993 0)
(0.872748 -0.10653 0)
(0.869932 -0.102997 0)
(0.867302 -0.0994215 0)
(0.864878 -0.0958277 0)
(0.862695 -0.0922408 0)
(0.860808 -0.0886869 0)
(0.859314 -0.0851933 0)
(0.858377 -0.0817882 0)
(0.858244 -0.0784958 0)
(0.859229 -0.0753231 0)
(0.861618 -0.0722351 0)
(0.865458 -0.0691212 0)
(0.870276 -0.0657784 0)
(0.874893 -0.0619468 0)
(0.873083 -0.14257 0)
(0.868865 -0.138495 0)
(0.864815 -0.134235 0)
(0.860957 -0.129805 0)
(0.857325 -0.125217 0)
(0.85394 -0.120475 0)
(0.850816 -0.115586 0)
(0.847959 -0.110557 0)
(0.845365 -0.105396 0)
(0.843015 -0.100107 0)
(0.840865 -0.0946948 0)
(0.83883 -0.0891589 0)
(0.836754 -0.083495 0)
(0.834374 -0.0776955 0)
(0.831288 -0.0717598 0)
(0.826988 -0.0657192 0)
(0.821032 -0.0596822 0)
(0.813429 -0.0538723 0)
(0.805162 -0.0486205 0)
(0.855682 -0.16261 0)
(0.850252 -0.158079 0)
(0.845105 -0.153189 0)
(0.840278 -0.148016 0)
(0.835776 -0.142595 0)
(0.831615 -0.136981 0)
(0.827811 -0.131224 0)
(0.824375 -0.125377 0)
(0.821319 -0.119499 0)
(0.818651 -0.113647 0)
(0.816392 -0.10788 0)
(0.814579 -0.10226 0)
(0.813299 -0.0968529 0)
(0.812729 -0.0917248 0)
(0.813192 -0.0869411 0)
(0.815177 -0.0825497 0)
(0.819234 -0.0785272 0)
(0.825583 -0.0747086 0)
(0.833456 -0.070702 0)
(0.835806 -0.188037 0)
(0.829083 -0.181944 0)
(0.822752 -0.175504 0)
(0.816836 -0.168697 0)
(0.811397 -0.161577 0)
(0.80649 -0.154171 0)
(0.802142 -0.146518 0)
(0.79838 -0.138662 0)
(0.795212 -0.130645 0)
(0.792633 -0.122507 0)
(0.790614 -0.114281 0)
(0.789098 -0.105993 0)
(0.787978 -0.0976603 0)
(0.787058 -0.0892873 0)
(0.785988 -0.0808696 0)
(0.784173 -0.0723982 0)
(0.780729 -0.0639264 0)
(0.77473 -0.0556263 0)
(0.765917 -0.0479114 0)
(0.814457 -0.214819 0)
(0.805748 -0.20782 0)
(0.797578 -0.199991 0)
(0.790043 -0.191544 0)
(0.78322 -0.182544 0)
(0.777137 -0.173089 0)
(0.771855 -0.163292 0)
(0.767393 -0.153257 0)
(0.763773 -0.143108 0)
(0.760988 -0.13297 0)
(0.759033 -0.122981 0)
(0.757894 -0.113286 0)
(0.757578 -0.10404 0)
(0.758148 -0.0954078 0)
(0.759787 -0.0875544 0)
(0.762907 -0.0806586 0)
(0.768266 -0.0748253 0)
(0.776781 -0.0700895 0)
(0.789048 -0.0661767 0)
(0.790003 -0.248527 0)
(0.778795 -0.239212 0)
(0.768282 -0.229092 0)
(0.758653 -0.218126 0)
(0.74996 -0.206383 0)
(0.74238 -0.194004 0)
(0.73596 -0.181088 0)
(0.730788 -0.16779 0)
(0.72689 -0.154253 0)
(0.724292 -0.140626 0)
(0.722979 -0.127047 0)
(0.72291 -0.113639 0)
(0.723996 -0.100499 0)
(0.726082 -0.0876907 0)
(0.728879 -0.07525 0)
(0.731862 -0.0631259 0)
(0.733997 -0.0513684 0)
(0.733866 -0.0400395 0)
(0.729155 -0.02939 0)
(0.764183 -0.285591 0)
(0.749219 -0.274836 0)
(0.735438 -0.262424 0)
(0.722742 -0.248523 0)
(0.711522 -0.233452 0)
(0.701813 -0.217319 0)
(0.693805 -0.200398 0)
(0.687554 -0.182901 0)
(0.683141 -0.165084 0)
(0.680567 -0.1472 0)
(0.679823 -0.129526 0)
(0.680857 -0.112349 0)
(0.683597 -0.0959807 0)
(0.687971 -0.0807692 0)
(0.693977 -0.0670613 0)
(0.701759 -0.0553606 0)
(0.71211 -0.0459261 0)
(0.725798 -0.0391523 0)
(0.745218 -0.0354025 0)
(0.734726 -0.331754 0)
(0.715602 -0.318087 0)
(0.697255 -0.302095 0)
(0.680775 -0.284397 0)
(0.666096 -0.264834 0)
(0.653641 -0.243864 0)
(0.643506 -0.221733 0)
(0.635893 -0.198785 0)
(0.63083 -0.175358 0)
(0.628398 -0.151798 0)
(0.628582 -0.128446 0)
(0.631355 -0.105636 0)
(0.636634 -0.0836814 0)
(0.644284 -0.0628263 0)
(0.654042 -0.0433409 0)
(0.665575 -0.0250653 0)
(0.677353 -0.00822682 0)
(0.688619 0.00728016 0)
(0.695013 0.0218103 0)
(0.705641 -0.384347 0)
(0.678993 -0.36783 0)
(0.655049 -0.348621 0)
(0.633118 -0.326003 0)
(0.614056 -0.301011 0)
(0.597986 -0.273953 0)
(0.585257 -0.245313 0)
(0.575871 -0.215594 0)
(0.570024 -0.185236 0)
(0.567676 -0.154684 0)
(0.568866 -0.12439 0)
(0.573553 -0.0948143 0)
(0.581671 -0.066454 0)
(0.593102 -0.0399218 0)
(0.607767 -0.015701 0)
(0.625168 0.00485968 0)
(0.646896 0.0214341 0)
(0.671835 0.032644 0)
(0.704579 0.0363179 0)
(0.671152 -0.447794 0)
(0.6378 -0.428429 0)
(0.606038 -0.403332 0)
(0.577757 -0.374581 0)
(0.553334 -0.342539 0)
(0.533269 -0.30779 0)
(0.517449 -0.271257 0)