/*--------------------------------*- C++ -*----------------------------------*\
  =========                 |
  \\      /  F ield         | OpenFOAM: The Open Source CFD Toolbox
   \\    /   O peration     | Website:  https://openfoam.org
    \\  /    A nd           | Version:  10
     \\/     M anipulation  |
\*---------------------------------------------------------------------------*/
FoamFile
{
    format      ascii;
    class       volVectorField;
    location    "0";
    object      U;
}
// * * * * * * * * * * * * * * * * * * * * * * * * * * * * * * * * * * * * * //

dimensions      [0 1 -1 0 0 0 0];

internalField   nonuniform List<vector> 
18483
(
(1.00001 -0.000166267 0)
(1.00001 -0.000598734 0)
(1.00001 -0.000960642 0)
(1 -0.00135299 0)
(1 -0.00173167 0)
(1 -0.00210036 0)
(0.999999 -0.00244206 0)
(0.999996 -0.00274454 0)
(0.999991 -0.00299722 0)
(0.999985 -0.00319464 0)
(0.999974 -0.00333766 0)
(0.999953 -0.00343657 0)
(0.999916 -0.00351024 0)
(0.999853 -0.00360407 0)
(0.999754 -0.0037674 0)
(0.999599 -0.00402512 0)
(0.999348 -0.00431819 0)
(0.998837 -0.00452274 0)
(0.997654 -0.00451419 0)
(0.99536 -0.00417207 0)
(0.992374 -0.00353896 0)
(0.990313 -0.00287541 0)
(0.990405 -0.00236757 0)
(0.992161 -0.00199046 0)
(0.994306 -0.00168627 0)
(0.996055 -0.00143025 0)
(0.997246 -0.00121129 0)
(0.997985 -0.00102442 0)
(0.99842 -0.000865432 0)
(1.00051 -0.000452846 0)
(1.00054 -0.00162326 0)
(1.0006 -0.00261442 0)
(1.00066 -0.00370804 0)
(1.00072 -0.00477872 0)
(1.00076 -0.00584078 0)
(1.00078 -0.00684401 0)
(1.00075 -0.00775317 0)
(1.00069 -0.00853543 0)
(1.0006 -0.009173 0)
(1.00048 -0.00966464 0)
(1.00037 -0.0100347 0)
(1.00031 -0.0103059 0)
(1.00033 -0.0104253 0)
(1.00046 -0.0103104 0)
(1.00063 -0.00990486 0)
(1.00069 -0.00930051 0)
(1.00056 -0.0087132 0)
(1.00034 -0.0083236 0)
(1.0007 -0.00830609 0)
(1.00233 -0.00867516 0)
(1.00451 -0.00906863 0)
(1.00534 -0.00917035 0)
(1.00427 -0.00909852 0)
(1.0024 -0.00901416 0)
(1.00073 -0.00894789 0)
(0.999525 -0.00889402 0)
(0.998728 -0.00884258 0)
(0.998204 -0.00878898 0)
(1.00141 -0.00068448 0)
(1.0015 -0.00244529 0)
(1.00167 -0.00395431 0)
(1.00186 -0.00564517 0)
(1.00205 -0.00732479 0)
(1.00219 -0.0090233 0)
(1.00226 -0.010659 0)
(1.00223 -0.0121723 0)
(1.00208 -0.0134969 0)
(1.00184 -0.0145841 0)
(1.00153 -0.0153949 0)
(1.00119 -0.0158948 0)
(1.00089 -0.0160663 0)
(1.00063 -0.0159318 0)
(1.00037 -0.0156475 0)
(1.00001 -0.0154704 0)
(0.999571 -0.0154565 0)
(0.999023 -0.0154635 0)
(0.998099 -0.0153797 0)
(0.996218 -0.0151547 0)
(0.992957 -0.0147668 0)
(0.989194 -0.0143597 0)
(0.987114 -0.0141197 0)
(0.987677 -0.0138823 0)
(0.989636 -0.0134768 0)
(0.99158 -0.0129714 0)
(0.993027 -0.0124622 0)
(0.994005 -0.0120003 0)
(0.994654 -0.0116049 0)
(1.00247 -0.000874551 0)
(1.00264 -0.00311391 0)
(1.00295 -0.00505199 0)
(1.00331 -0.00725585 0)
(1.00367 -0.00947669 0)
(1.00396 -0.0117645 0)
(1.00412 -0.014013 0)
(1.00409 -0.0161417 0)
(1.00386 -0.0180512 0)
(1.00341 -0.0196615 0)
(1.00277 -0.0209083 0)
(1.00196 -0.021754 0)
(1.00103 -0.0222329 0)
(0.999982 -0.0224523 0)
(0.998881 -0.0224716 0)
(0.997815 -0.0220942 0)
(0.996871 -0.0211065 0)
(0.99614 -0.0196643 0)
(0.99604 -0.0181533 0)
(0.997439 -0.016896 0)
(1.00079 -0.0160456 0)
(1.00457 -0.0154553 0)
(1.00582 -0.0148199 0)
(1.00355 -0.0142141 0)
(0.999798 -0.013831 0)
(0.996576 -0.0135921 0)
(0.994381 -0.0133772 0)
(0.992988 -0.0131437 0)
(0.9921 -0.0128863 0)
(1.00353 -0.00103891 0)
(1.0038 -0.00368404 0)
(1.00427 -0.00598841 0)
(1.00483 -0.00864029 0)
(1.00541 -0.0113441 0)
(1.0059 -0.0141768 0)
(1.00621 -0.0170169 0)
(1.00625 -0.0197726 0)
(1.00597 -0.0223185 0)
(1.00536 -0.0245474 0)
(1.00443 -0.0263772 0)
(1.00323 -0.0277652 0)
(1.00184 -0.0287136 0)
(1.00038 -0.0291968 0)
(0.998941 -0.0291985 0)
(0.997546 -0.0288655 0)
(0.996103 -0.0285384 0)
(0.994646 -0.0284333 0)
(0.993124 -0.0283491 0)
(0.990833 -0.0279645 0)
(0.986673 -0.0271342 0)
(0.981289 -0.0260456 0)
(0.977996 -0.0250848 0)
(0.978756 -0.0242261 0)
(0.981517 -0.0232107 0)
(0.983823 -0.0221123 0)
(0.985154 -0.0210936 0)
(0.985813 -0.0202088 0)
(0.986101 -0.0194646 0)
(1.00458 -0.00118944 0)
(1.00495 -0.00419746 0)
(1.0056 -0.00682579 0)
(1.00638 -0.00987419 0)
(1.00723 -0.0130072 0)
(1.00798 -0.0163378 0)
(1.00851 -0.0197376 0)
(1.0087 -0.0231125 0)
(1.00847 -0.0263152 0)
(1.00778 -0.0292079 0)
(1.00664 -0.0316728 0)
(1.0051 -0.0336197 0)
(1.00327 -0.034997 0)
(1.00125 -0.0357741 0)
(0.99908 -0.0360221 0)
(0.996793 -0.0358816 0)
(0.994503 -0.0352456 0)
(0.992412 -0.0338759 0)
(0.990918 -0.0318926 0)
(0.991048 -0.0297559 0)
(0.994019 -0.0279061 0)
(0.998693 -0.0264555 0)
(1.00072 -0.0251268 0)
(0.997584 -0.0239024 0)
(0.992043 -0.0230671 0)
(0.987502 -0.0225262 0)
(0.984579 -0.0220439 0)
(0.98274 -0.0215524 0)
(0.981535 -0.0210468 0)
(1.00565 -0.0013315 0)
(1.00613 -0.00467382 0)
(1.00696 -0.00759416 0)
(1.00799 -0.0109948 0)
(1.00912 -0.0145052 0)
(1.01018 -0.0182823 0)
(1.011 -0.0221996 0)
(1.01142 -0.0261715 0)
(1.01132 -0.0300416 0)
(1.0106 -0.0336539 0)
(1.00926 -0.0368602 0)
(1.00734 -0.0395358 0)
(1.00495 -0.0416158 0)
(1.00221 -0.0430835 0)
(0.999238 -0.0439338 0)
(0.996184 -0.0442177 0)
(0.993156 -0.0441454 0)
(0.990129 -0.0440999 0)
(0.986988 -0.0442466 0)
(0.983094 -0.0442382 0)
(0.977126 -0.0435959 0)
(0.969471 -0.042225 0)
(0.964445 -0.0405948 0)
(0.965397 -0.0390231 0)
(0.969319 -0.0372702 0)
(0.972099 -0.0353908 0)
(0.973233 -0.0336742 0)
(0.973504 -0.0321959 0)
(0.973394 -0.0309515 0)
(1.00675 -0.00146476 0)
(1.00733 -0.00511373 0)
(1.00835 -0.00829634 0)
(1.00963 -0.012007 0)
(1.01107 -0.0158437 0)
(1.01246 -0.0200128 0)
(1.01362 -0.0243981 0)
(1.01435 -0.0289365 0)
(1.01446 -0.0334759 0)
(1.01383 -0.0378518 0)
(1.01242 -0.0418845 0)
(1.01028 -0.0454006 0)
(1.00752 -0.0482681 0)
(1.00431 -0.0503928 0)
(1.00079 -0.0516993 0)
(0.997059 -0.0522063 0)
(0.993192 -0.0519541 0)
(0.989353 -0.0507596 0)
(0.98597 -0.0484806 0)
(0.984099 -0.0455406 0)
(0.985354 -0.042763 0)
(0.989502 -0.0407509 0)
(0.991726 -0.0393079 0)
(0.987586 -0.037936 0)
(0.979957 -0.0368573 0)
(0.973977 -0.0361613 0)
(0.9704 -0.0355061 0)
(0.96815 -0.0348045 0)
(0.966617 -0.0340772 0)
(1.00785 -0.00158585 0)
(1.00853 -0.00550793 0)
(1.00973 -0.00892072 0)
(1.01126 -0.0128982 0)
(1.01301 -0.0170102 0)
(1.01477 -0.0215154 0)
(1.01631 -0.0263137 0)
(1.01741 -0.0313741 0)
(1.01784 -0.0365567 0)
(1.01744 -0.0416939 0)
(1.01612 -0.0465803 0)
(1.01388 -0.0510016 0)
(1.01079 -0.0547718 0)
(1.00699 -0.0577781 0)
(1.00259 -0.0599785 0)
(0.997726 -0.0613942 0)
(0.99258 -0.0621566 0)
(0.98731 -0.0626141 0)
(0.981989 -0.0631968 0)
(0.976269 -0.0638702 0)
(0.968796 -0.0639293 0)
(0.959164 -0.0626951 0)
(0.951611 -0.0604014 0)
(0.951249 -0.0579838 0)
(0.955434 -0.0555678 0)
(0.958184 -0.0529202 0)
(0.958672 -0.0504456 0)
(0.958285 -0.0483142 0)
(0.957611 -0.0464983 0)
(1.00892 -0.00169139 0)
(1.0097 -0.00584683 0)
(1.01106 -0.0094548 0)
(1.01283 -0.0136553 0)
(1.0149 -0.0179929 0)
(1.01702 -0.0227784 0)
(1.01898 -0.0279308 0)
(1.0205 -0.0334568 0)
(1.02135 -0.0392399 0)
(1.02128 -0.0451288 0)
(1.02015 -0.0509179 0)
(1.01788 -0.0563809 0)
(1.0145 -0.0612929 0)
(1.01015 -0.0654711 0)
(1.00504 -0.0687621 0)
(0.99941 -0.0710133 0)
(0.993495 -0.072118 0)
(0.987524 -0.0719173 0)
(0.981907 -0.0701536 0)
(0.977471 -0.0669626 0)
(0.975792 -0.0632676 0)
(0.977837 -0.0603163 0)
(0.979874 -0.0586652 0)
(0.975535 -0.0573854 0)
(0.965995 -0.0559876 0)
(0.958127 -0.0549889 0)
(0.953612 -0.0541 0)
(0.950701 -0.0530806 0)
(0.94861 -0.0520181 0)
(1.00994 -0.00177948 0)
(1.01081 -0.00612536 0)
(1.01233 -0.00989251 0)
(1.01432 -0.0142732 0)
(1.01668 -0.0187898 0)
(1.01917 -0.0238013 0)
(1.02156 -0.0292475 0)
(1.02357 -0.0351772 0)
(1.0249 -0.041511 0)
(1.02528 -0.0481327 0)
(1.02448 -0.0548504 0)
(1.02239 -0.0614215 0)
(1.01902 -0.0675584 0)
(1.01447 -0.072967 0)
(1.00893 -0.0774037 0)
(1.00255 -0.0807199 0)
(0.995459 -0.0829365 0)
(0.987795 -0.0843458 0)
(0.979804 -0.0855921 0)
(0.971613 -0.087123 0)
(0.962463 -0.0883987 0)
(0.951255 -0.0881661 0)
(0.940594 -0.0857143 0)
(0.936734 -0.0822693 0)
(0.939599 -0.0790764 0)
(0.941937 -0.0756789 0)
(0.941408 -0.0722864 0)
(0.94002 -0.0693739 0)
(0.938528 -0.0668703 0)
(1.01089 -0.00184986 0)
(1.01185 -0.00634357 0)
(1.01352 -0.0102351 0)
(1.01572 -0.0147561 0)
(1.01836 -0.0194082 0)
(1.02121 -0.0245945 0)
(1.02404 -0.0302755 0)
(1.02655 -0.0365435 0)
(1.02843 -0.0433632 0)
(1.02937 -0.0506611 0)
(1.0291 -0.0582649 0)
(1.02743 -0.0659254 0)
(1.02429 -0.0733279 0)
(1.01966 -0.0801411 0)
(1.01363 -0.0860908 0)
(1.00635 -0.0909759 0)
(0.998135 -0.0946287 0)
(0.98941 -0.0967878 0)
(0.980857 -0.0969683 0)
(0.973296 -0.0948138 0)
(0.967796 -0.0908946 0)
(0.965901 -0.0868649 0)
(0.966374 -0.08447 0)
(0.962389 -0.0833208 0)
(0.951463 -0.0816909 0)
(0.940832 -0.0800654 0)
(0.934643 -0.0787694 0)
(0.930643 -0.0772204 0)
(0.927603 -0.0755653 0)
(1.01178 -0.00190361 0)
(1.01281 -0.00650567 0)
(1.01461 -0.0104897 0)
(1.01701 -0.0151149 0)
(1.01992 -0.0198638 0)
(1.02311 -0.0251782 0)
(1.02638 -0.0310375 0)
(1.02941 -0.0375753 0)
(1.0319 -0.0448017 0)
(1.03349 -0.0526915 0)
(1.03387 -0.0611134 0)
(1.03276 -0.0698469 0)
(1.02996 -0.0785922 0)
(1.02538 -0.0869929 0)
(1.01907 -0.094663 0)
(1.01127 -0.101212 0)
(1.00227 -0.106325 0)
(0.992364 -0.109895 0)
(0.981808 -0.1124 0)
(0.970734 -0.114873 0)
(0.958964 -0.117597 0)
(0.945682 -0.119166 0)
(0.931658 -0.1177 0)
(0.922362 -0.113524 0)
(0.921509 -0.109146 0)
(0.922895 -0.104984 0)
(0.921132 -0.100471 0)
(0.918221 -0.096487 0)
(0.915538 -0.093092 0)
(1.01259 -0.00194278 0)
(1.0137 -0.00661883 0)
(1.01562 -0.0106676 0)
(1.0182 -0.0153659 0)
(1.02135 -0.020178 0)
(1.02487 -0.0255793 0)
(1.02855 -0.0315646 0)
(1.03211 -0.0383038 0)
(1.03523 -0.0458531 0)
(1.03753 -0.0542442 0)
(1.03864 -0.0634057 0)
(1.03823 -0.0731666 0)
(1.03601 -0.0832431 0)
(1.03183 -0.093242 0)
(1.02567 -0.102693 0)
(1.01761 -0.111141 0)
(1.00783 -0.118287 0)
(0.996685 -0.123935 0)
(0.984828 -0.127663 0)
(0.973338 -0.128573 0)
(0.963345 -0.12621 0)
(0.956304 -0.121768 0)
(0.952976 -0.117956 0)
(0.948515 -0.116494 0)
(0.936785 -0.115111 0)
(0.92242 -0.112667 0)
(0.913059 -0.110581 0)
(0.907285 -0.108279 0)
(0.902699 -0.105633 0)
(1.01333 -0.00196989 0)
(1.0145 -0.00669159 0)
(1.01653 -0.010782 0)
(1.01928 -0.0155273 0)
(1.02266 -0.0203751 0)
(1.02649 -0.025828 0)
(1.03056 -0.0318919 0)
(1.03463 -0.0387679 0)
(1.03837 -0.046558 0)
(1.04142 -0.0553536 0)
(1.04336 -0.0651479 0)
(1.04381 -0.0758243 0)
(1.04242 -0.0871293 0)
(1.03894 -0.0986835 0)
(1.03316 -0.11002 0)
(1.02503 -0.120644 0)
(1.01474 -0.130095 0)
(1.00277 -0.137918 0)
(0.989604 -0.143768 0)
(0.975424 -0.148194 0)
(0.960053 -0.152487 0)
(0.943417 -0.156492 0)
(0.925548 -0.1577 0)
(0.909593 -0.154046 0)
(0.901861 -0.148069 0)
(0.900631 -0.142711 0)
(0.897501 -0.136954 0)
(0.89227 -0.131312 0)
(0.887707 -0.126584 0)
(1.01401 -0.00198748 0)
(1.01523 -0.00673253 0)
(1.01737 -0.0108461 0)
(1.02026 -0.0156176 0)
(1.02385 -0.0204787 0)
(1.02796 -0.0259538 0)
(1.0324 -0.0320551 0)
(1.03696 -0.0390104 0)
(1.04131 -0.0469628 0)
(1.04511 -0.0560605 0)
(1.04794 -0.0663603 0)
(1.04936 -0.0778124 0)
(1.04896 -0.0902287 0)
(1.04633 -0.103287 0)
(1.04116 -0.116542 0)
(1.03333 -0.129427 0)
(1.02298 -0.141365 0)
(1.01042 -0.151888 0)
(0.995964 -0.160523 0)
(0.980269 -0.166464 0)
(0.964835 -0.168388 0)
(0.951514 -0.165845 0)
(0.942001 -0.161236 0)
(0.934639 -0.158723 0)
(0.922047 -0.157972 0)
(0.903461 -0.155201 0)
(0.8884 -0.151682 0)
(0.879351 -0.148309 0)
(0.872262 -0.144141 0)
(1.01462 -0.00199782 0)
(1.0159 -0.00674936 0)
(1.01812 -0.0108721 0)
(1.02115 -0.0156531 0)
(1.02493 -0.0205102 0)
(1.02929 -0.0259843 0)
(1.03408 -0.0320888 0)
(1.03908 -0.0390736 0)
(1.04403 -0.0471165 0)
(1.04857 -0.0564173 0)
(1.05229 -0.0670977 0)
(1.05473 -0.0791873 0)
(1.0554 -0.0925801 0)
(1.05383 -0.107019 0)
(1.04961 -0.122087 0)
(1.04252 -0.137213 0)
(1.0325 -0.151793 0)
(1.01975 -0.165273 0)
(1.00455 -0.176903 0)
(0.987215 -0.186018 0)
(0.967972 -0.193422 0)
(0.946871 -0.200632 0)
(0.924061 -0.206214 0)
(0.900667 -0.205872 0)
(0.882801 -0.199346 0)
(0.875092 -0.192016 0)
(0.869779 -0.185067 0)
(0.861237 -0.17717 0)
(0.853282 -0.170212 0)
(1.01518 -0.00200283 0)
(1.0165 -0.00674865 0)
(1.01881 -0.0108701 0)
(1.02196 -0.0156482 0)
(1.02591 -0.020488 0)
(1.0305 -0.0259434 0)
(1.03559 -0.0320241 0)
(1.04101 -0.0389972 0)
(1.04651 -0.0470686 0)
(1.05176 -0.0564848 0)
(1.05636 -0.0674305 0)
(1.05985 -0.0800161 0)
(1.06169 -0.0942169 0)
(1.06137 -0.109846 0)
(1.05839 -0.12656 0)
(1.05236 -0.143853 0)
(1.04309 -0.16111 0)
(1.03061 -0.17769 0)
(1.01501 -0.192825 0)
(0.996367 -0.20555 0)
(0.975683 -0.214589 0)
(0.955417 -0.218146 0)
(0.937907 -0.215919 0)
(0.923858 -0.212362 0)
(0.908485 -0.212173 0)
(0.885665 -0.211054 0)
(0.861759 -0.206194 0)
(0.8459 -0.201147 0)
(0.834545 -0.195132 0)
(1.01569 -0.00200402 0)
(1.01706 -0.00673567 0)
(1.01944 -0.0108485 0)
(1.02269 -0.0156146 0)
(1.0268 -0.0204277 0)
(1.03159 -0.0258512 0)
(1.03696 -0.0318872 0)
(1.04276 -0.0388158 0)
(1.04877 -0.046865 0)
(1.05469 -0.0563214 0)
(1.06015 -0.0674262 0)
(1.06469 -0.0803644 0)
(1.06776 -0.0951938 0)
(1.0688 -0.111815 0)
(1.06721 -0.129984 0)
(1.0625 -0.149289 0)
(1.05435 -0.169128 0)
(1.04263 -0.188837 0)
(1.02719 -0.20761 0)
(1.00797 -0.224298 0)
(0.985356 -0.238156 0)
(0.959828 -0.250424 0)
(0.931426 -0.26225 0)
(0.900187 -0.269849 0)
(0.869641 -0.267255 0)
(0.849098 -0.258106 0)
(0.838075 -0.249666 0)
(0.825153 -0.239897 0)
(0.81099 -0.2295 0)
(1.01616 -0.00200255 0)
(1.01756 -0.00671451 0)
(1.02001 -0.010814 0)
(1.02336 -0.0155616 0)
(1.02761 -0.0203416 0)
(1.03257 -0.025724 0)
(1.0382 -0.0316997 0)
(1.04434 -0.0385591 0)
(1.05081 -0.046546 0)
(1.05737 -0.0559802 0)
(1.06364 -0.0671511 0)
(1.06919 -0.0803116 0)
(1.07349 -0.0956061 0)
(1.07591 -0.113028 0)
(1.07581 -0.132435 0)
(1.07265 -0.153516 0)
(1.06602 -0.175738 0)
(1.05554 -0.198456 0)
(1.04087 -0.220903 0)
(1.02168 -0.24201 0)
(0.998191 -0.260468 0)
(0.972041 -0.274297 0)
(0.945926 -0.280574 0)
(0.921781 -0.279833 0)
(0.8997 -0.280008 0)
(0.872605 -0.283129 0)
(0.837908 -0.280222 0)
(0.808687 -0.273082 0)
(0.789183 -0.265379 0)
(1.01658 -0.0019993 0)
(1.01802 -0.00668829 0)
(1.02053 -0.0107715 0)
(1.02396 -0.0154965 0)
(1.02834 -0.0202394 0)
(1.03346 -0.0255746 0)
(1.0393 -0.0314794 0)
(1.04575 -0.0382518 0)
(1.05266 -0.0461462 0)
(1.05978 -0.0555088 0)
(1.06681 -0.0666703 0)
(1.07333 -0.0799441 0)
(1.07881 -0.0955579 0)
(1.08261 -0.113593 0)
(1.08408 -0.133999 0)
(1.08266 -0.156577 0)
(1.07781 -0.180908 0)
(1.069 -0.206411 0)
(1.05565 -0.232398 0)
(1.03725 -0.257868 0)
(1.01372 -0.281457 0)
(0.985476 -0.302579 0)
(0.952343 -0.322913 0)
(0.913752 -0.342359 0)
(0.870697 -0.352505 0)
(0.831078 -0.347183 0)
(0.805463 -0.336853 0)
(0.785935 -0.327027 0)
(0.762301 -0.313104 0)
(1.01696 -0.00199493 0)
(1.01844 -0.00665931 0)
(1.021 -0.0107248 0)
(1.02451 -0.0154245 0)
(1.02899 -0.0201283 0)
(1.03425 -0.0254131 0)
(1.04029 -0.0312403 0)
(1.04702 -0.0379144 0)
(1.0543 -0.0456947 0)
(1.06195 -0.0549486 0)
(1.06968 -0.0660425 0)
(1.07709 -0.0793403 0)
(1.0837 -0.0951432 0)
(1.08888 -0.113614 0)
(1.09196 -0.134789 0)
(1.09235 -0.158589 0)
(1.08945 -0.184721 0)
(1.08261 -0.212705 0)
(1.07107 -0.241956 0)
(1.05414 -0.271664 0)
(1.03149 -0.300683 0)
(1.0034 -0.327413 0)
(0.971372 -0.348588 0)
(0.937489 -0.359551 0)
(0.903948 -0.362889 0)
(0.869878 -0.371149 0)
(0.825686 -0.378558 0)
(0.775752 -0.372693 0)
(0.738643 -0.363256 0)
(1.01731 -0.00198993 0)
(1.01881 -0.00662928 0)
(1.02142 -0.0106766 0)
(1.02499 -0.0153499 0)
(1.02957 -0.020014 0)
(1.03495 -0.025247 0)
(1.04117 -0.0309936 0)
(1.04813 -0.0375629 0)
(1.05575 -0.0452153 0)
(1.06387 -0.0543338 0)
(1.07224 -0.0653149 0)
(1.0805 -0.078565 0)
(1.08818 -0.0944458 0)
(1.09469 -0.113199 0)
(1.09934 -0.134942 0)
(1.10153 -0.159701 0)
(1.10066 -0.18731 0)
(1.09601 -0.217408 0)
(1.0867 -0.249542 0)
(1.07187 -0.283093 0)
(1.05109 -0.317112 0)
(1.02404 -0.350231 0)
(0.989843 -0.382101 0)
(0.947318 -0.415432 0)
(0.895834 -0.448115 0)
(0.836473 -0.462901 0)
(0.782972 -0.455107 0)
(0.746871 -0.445662 0)
(0.711819 -0.432493 0)
(1.01761 -0.00198466 0)
(1.01914 -0.00659941 0)
(1.02179 -0.0106288 0)
(1.02542 -0.0152756 0)
(1.03009 -0.0199006 0)
(1.03557 -0.025082 0)
(1.04194 -0.0307476 0)
(1.04911 -0.0372097 0)
(1.05703 -0.0447262 0)
(1.06558 -0.0536919 0)
(1.07453 -0.0645274 0)
(1.08357 -0.0776748 0)
(1.09225 -0.0935464 0)
(1.1 -0.112457 0)
(1.10615 -0.134595 0)
(1.1101 -0.160075 0)
(1.11127 -0.188845 0)
(1.10894 -0.220671 0)
(1.10214 -0.255254 0)
(1.08988 -0.292158 0)
(1.07162 -0.330791 0)
(1.04686 -0.370332 0)
(1.01473 -0.40873 0)
(0.976072 -0.440898 0)
(0.932848 -0.459986 0)
(0.887074 -0.473194 0)
(0.834781 -0.497774 0)
(0.76374 -0.510295 0)
(0.691109 -0.499583 0)
(1.01788 -0.00197937 0)
(1.01943 -0.00657054 0)
(1.02212 -0.0105827 0)
(1.0258 -0.0152034 0)
(1.03054 -0.019791 0)
(1.03612 -0.0249222 0)
(1.04262 -0.0305084 0)
(1.04997 -0.0368639 0)
(1.05816 -0.0442419 0)
(1.06708 -0.0530452 0)
(1.07655 -0.0637128 0)
(1.0863 -0.0767179 0)
(1.09589 -0.0925148 0)
(1.10479 -0.11148 0)
(1.11235 -0.133867 0)
(1.118 -0.159858 0)
(1.12119 -0.189502 0)
(1.12118 -0.222682 0)
(1.11703 -0.259261 0)
(1.10767 -0.298995 0)
(1.09248 -0.341513 0)
(1.07113 -0.386383 0)
(1.0419 -0.432434 0)
(1.0015 -0.479882 0)
(0.949062 -0.534798 0)
(0.882701 -0.592425 0)
(0.797925 -0.616873 0)
(0.717641 -0.607702 0)
(0.660052 -0.600167 0)
(1.01812 -0.00197422 0)
(1.01969 -0.00654322 0)
(1.02242 -0.0105391 0)
(1.02613 -0.0151349 0)
(1.03095 -0.0196872 0)
(1.0366 -0.0247704 0)
(1.04322 -0.0302803 0)
(1.05073 -0.0365324 0)
(1.05915 -0.043773 0)
(1.06839 -0.052411 0)
(1.07833 -0.0628987 0)
(1.0887 -0.0757354 0)
(1.09912 -0.09141 0)
(1.10908 -0.11035 0)
(1.11797 -0.132865 0)
(1.12522 -0.159195 0)
(1.13033 -0.18947 0)
(1.13259 -0.223674 0)
(1.13107 -0.261803 0)
(1.12483 -0.303822 0)
(1.11309 -0.349527 0)
(1.0955 -0.398908 0)
(1.07078 -0.45213 0)
(1.03641 -0.507281 0)
(0.99214 -0.556405 0)
(0.938586 -0.588776 0)
(0.877141 -0.624765 0)
(0.793757 -0.68595 0)
(0.669828 -0.700903 0)
(1.01833 -0.00196933 0)
(1.01992 -0.00651778 0)
(1.02268 -0.0104984 0)
(1.02643 -0.0150709 0)
(1.0313 -0.0195902 0)
(1.03702 -0.0246282 0)
(1.04374 -0.0300662 0)
(1.05139 -0.0362198 0)
(1.06 -0.0433275 0)
(1.06954 -0.051802 0)
(1.07988 -0.0621054 0)
(1.09081 -0.0747578 0)
(1.10198 -0.0902771 0)
(1.1129 -0.109131 0)
(1.12301 -0.13168 0)
(1.13175 -0.158209 0)
(1.13865 -0.188913 0)
(1.14307 -0.22386 0)
(1.1441 -0.263132 0)
(1.14096 -0.306887 0)
(1.13296 -0.35516 0)
(1.11947 -0.407978 0)
(1.10007 -0.466044 0)
(1.07228 -0.529749 0)
(1.02798 -0.599667 0)
(0.966728 -0.689957 0)
(0.889657 -0.801707 0)
(0.759106 -0.856577 0)
(0.5994 -0.842651 0)
(1.01852 -0.00196477 0)
(1.02012 -0.0064944 0)
(1.0229 -0.0104611 0)
(1.02669 -0.0150118 0)
(1.03161 -0.0195009 0)
(1.03739 -0.0244968 0)
(1.04419 -0.0298679 0)
(1.05196 -0.0359292 0)
(1.06075 -0.0429105 0)
(1.07053 -0.0512273 0)
(1.08123 -0.061348 0)
(1.09266 -0.0738094 0)
(1.10449 -0.0891533 0)
(1.11628 -0.10788 0)
(1.12749 -0.130393 0)
(1.13759 -0.157014 0)
(1.14614 -0.187986 0)
(1.15257 -0.223447 0)
(1.15601 -0.263535 0)
(1.15579 -0.308515 0)
(1.15159 -0.358716 0)
(1.14257 -0.414207 0)
(1.12802 -0.475691 0)
(1.10787 -0.546529 0)
(1.07833 -0.627249 0)
(1.03428 -0.701516 0)
(0.971007 -0.753028 0)
(0.891479 -0.851294 0)
(0.730613 -1.00529 0)
(1.01869 -0.00196057 0)
(1.0203 -0.00647316 0)
(1.0231 -0.010427 0)
(1.02692 -0.0149579 0)
(1.03188 -0.0194194 0)
(1.03771 -0.0243767 0)
(1.04459 -0.0296864 0)
(1.05246 -0.0356621 0)
(1.0614 -0.0425253 0)
(1.0714 -0.0506924 0)
(1.08241 -0.0606363 0)
(1.09427 -0.0729068 0)
(1.10669 -0.0880651 0)
(1.11925 -0.106639 0)
(1.13144 -0.129065 0)
(1.14276 -0.155696 0)
(1.15282 -0.186807 0)
(1.1611 -0.222595 0)
(1.16678 -0.263243 0)
(1.16925 -0.309034 0)
(1.16858 -0.360514 0)
(1.16418 -0.41804 0)
(1.1547 -0.481849 0)
(1.14216 -0.555459 0)
(1.12598 -0.642901 0)
(1.08615 -0.738769 0)
(1.02239 -0.878174 0)
(0.954753 -1.12721 0)
(0.68513 -1.22599 0)
(0.998664 -0.000728187 0)
(0.998795 -0.00059707 0)
(0.998837 -0.000459594 0)
(0.998792 -0.000315031 0)
(0.998652 -0.000162937 0)
(0.998398 -2.94496e-06 0)
(0.998006 0.000164738 0)
(0.997443 0.00033898 0)
(0.996671 0.000517369 0)
(0.995653 0.000695811 0)
(0.994361 0.000868208 0)
(0.992784 0.00102635 0)
(0.990937 0.00116019 0)
(0.988874 0.00125857 0)
(0.986689 0.00131052 0)
(0.98452 0.00130692 0)
(0.982536 0.00124241 0)
(0.980924 0.00111701 0)
(0.979856 0.000937185 0)
(0.997848 -0.00873666 0)
(0.997582 -0.00869009 0)
(0.997376 -0.00865213 0)
(0.997231 -0.00862415 0)
(0.99716 -0.00860585 0)
(0.997192 -0.00859716 0)
(0.99737 -0.00859784 0)
(0.997754 -0.00860696 0)
(0.998417 -0.0086224 0)
(0.999443 -0.00864017 0)
(1.00091 -0.0086537 0)
(1.00288 -0.0086532 0)
(1.00537 -0.00862542 0)
(1.00834 -0.00855414 0)
(1.01167 -0.00842154 0)
(1.01516 -0.00821059 0)
(1.01854 -0.00790827 0)
(1.02147 -0.00750887 0)
(1.02364 -0.00701675 0)
(0.995088 -0.0112696 0)
(0.995403 -0.0109562 0)
(0.995637 -0.0106353 0)
(0.995792 -0.0103073 0)
(0.995862 -0.00997264 0)
(0.995828 -0.00963051 0)
(0.995658 -0.00927893 0)
(0.995305 -0.00891533 0)
(0.994706 -0.00853678 0)
(0.993784 -0.00814048 0)
(0.992458 -0.00772463 0)
(0.990648 -0.00728932 0)
(0.988304 -0.00683752 0)
(0.985425 -0.00637563 0)
(0.982083 -0.00591341 0)
(0.978446 -0.00546295 0)
(0.974779 -0.00503676 0)
(0.971423 -0.00464532 0)
(0.96875 -0.0042947 0)
(0.991508 -0.0126187 0)
(0.991064 -0.0123429 0)
(0.990698 -0.0120515 0)
(0.990393 -0.011747 0)
(0.99014 -0.0114298 0)
(0.989947 -0.0111011 0)
(0.989834 -0.0107631 0)
(0.989844 -0.0104189 0)
(0.990038 -0.0100719 0)
(0.990494 -0.0097262 0)
(0.991308 -0.00938563 0)
(0.992574 -0.00905322 0)
(0.994368 -0.00873034 0)
(0.996716 -0.0084159 0)
(0.99957 -0.00810616 0)
(1.00278 -0.0077951 0)
(1.0061 -0.00747563 0)
(1.00919 -0.00714123 0)
(1.0117 -0.00678771 0)
(0.986201 -0.018837 0)
(0.986206 -0.0182552 0)
(0.986147 -0.0176673 0)
(0.986036 -0.0170742 0)
(0.98588 -0.0164787 0)
(0.985672 -0.0158832 0)
(0.985397 -0.0152894 0)
(0.985025 -0.0146993 0)
(0.98451 -0.0141141 0)
(0.983786 -0.0135345 0)
(0.982773 -0.0129604 0)
(0.98138 -0.012391 0)
(0.979528 -0.0118251 0)
(0.97717 -0.0112615 0)
(0.974328 -0.0106988 0)
(0.971117 -0.0101359 0)
(0.967764 -0.00957118 0)
(0.964592 -0.00900192 0)
(0.961973 -0.00842422 0)
(0.980694 -0.0205448 0)
(0.980033 -0.0200399 0)
(0.979469 -0.0195131 0)
(0.978987 -0.0189674 0)
(0.978581 -0.0184021 0)
(0.978261 -0.0178172 0)
(0.978046 -0.0172137 0)
(0.977967 -0.0165926 0)
(0.978071 -0.0159554 0)
(0.978418 -0.0153041 0)
(0.979078 -0.0146408 0)
(0.980124 -0.0139678 0)
(0.981614 -0.0132872 0)
(0.983568 -0.0126006 0)
(0.985939 -0.0119094 0)
(0.98859 -0.0112146 0)
(0.991289 -0.0105182 0)
(0.993726 -0.0098231 0)
(0.995566 -0.00913372 0)
(0.973137 -0.029901 0)
(0.972815 -0.0289275 0)
(0.972443 -0.0279461 0)
(0.972043 -0.026957 0)
(0.971626 -0.0259634 0)
(0.971195 -0.024967 0)
(0.97074 -0.0239689 0)
(0.970242 -0.0229705 0)
(0.969665 -0.0219723 0)
(0.968954 -0.0209748 0)
(0.968038 -0.0199778 0)
(0.966835 -0.0189814 0)
(0.965264 -0.0179858 0)
(0.963277 -0.0169918 0)
(0.960883 -0.0160007 0)
(0.958183 -0.0150138 0)
(0.955383 -0.0140311 0)
(0.952781 -0.0130504 0)
(0.950718 -0.0120668 0)
(0.965498 -0.0333499 0)
(0.96458 -0.0326159 0)
(0.963761 -0.0318477 0)
(0.963028 -0.0310492 0)
(0.962375 -0.0302189 0)
(0.961811 -0.0293562 0)
(0.961349 -0.0284616 0)
(0.961015 -0.0275355 0)
(0.960845 -0.0265792 0)
(0.960887 -0.0255942 0)
(0.961202 -0.0245824 0)
(0.961853 -0.0235453 0)
(0.962897 -0.0224837 0)
(0.964355 -0.0213964 0)
(0.96619 -0.0202804 0)
(0.968274 -0.019131 0)
(0.970384 -0.0179439 0)
(0.972216 -0.0167169 0)
(0.973447 -0.0154523 0)
(0.956873 -0.0449546 0)
(0.956116 -0.0435152 0)
(0.955328 -0.042056 0)
(0.954531 -0.040578 0)
(0.953739 -0.0390848 0)
(0.952959 -0.0375782 0)
(0.952191 -0.0360591 0)
(0.951421 -0.034528 0)
(0.950623 -0.0329847 0)
(0.949754 -0.0314285 0)
(0.94875 -0.0298578 0)
(0.94753 -0.0282713 0)
(0.946008 -0.0266689 0)
(0.944114 -0.0250526 0)
(0.94183 -0.0234282 0)
(0.939229 -0.0218048 0)
(0.936498 -0.0201927 0)
(0.933934 -0.0186002 0)
(0.931887 -0.017029 0)
(0.947024 -0.0509492 0)
(0.945677 -0.0498638 0)
(0.944435 -0.048721 0)
(0.943283 -0.0475269 0)
(0.942214 -0.0462806 0)
(0.941232 -0.0449824 0)
(0.940343 -0.0436333 0)
(0.939564 -0.0422342 0)
(0.938918 -0.0407864 0)
(0.938438 -0.0392916 0)
(0.938175 -0.0377516 0)
(0.938185 -0.0361679 0)
(0.938534 -0.0345403 0)
(0.939267 -0.0328654 0)
(0.940387 -0.0311349 0)
(0.94181 -0.0293345 0)
(0.943341 -0.0274468 0)
(0.94468 -0.0254574 0)
(0.945475 -0.0233632 0)
(0.937087 -0.0647189 0)
(0.935694 -0.0626984 0)
(0.934293 -0.0606352 0)
(0.932905 -0.0585313 0)
(0.931546 -0.0563892 0)
(0.930221 -0.0542089 0)
(0.928932 -0.0519897 0)
(0.927672 -0.0497306 0)
(0.926421 -0.0474308 0)
(0.925145 -0.0450894 0)
(0.923792 -0.042706 0)
(0.922283 -0.0402818 0)
(0.920525 -0.0378208 0)
(0.91842 -0.035333 0)
(0.915904 -0.0328367 0)
(0.912996 -0.0303609 0)
(0.90985 -0.0279429 0)
(0.906786 -0.0256194 0)
(0.904249 -0.0234122 0)
(0.925241 -0.0739145 0)
(0.923188 -0.0722273 0)
(0.921255 -0.0704402 0)
(0.919421 -0.0685651 0)
(0.917681 -0.0666079 0)
(0.916031 -0.0645761 0)
(0.914479 -0.062478 0)
(0.913034 -0.0603223 0)
(0.911714 -0.0581177 0)
(0.910549 -0.0558728 0)
(0.909584 -0.0535958 0)
(0.908882 -0.0512936 0)
(0.908528 -0.04897 0)
(0.908617 -0.0466217 0)
(0.909221 -0.0442339 0)
(0.910344 -0.0417746 0)
(0.911848 -0.0391941 0)
(0.913408 -0.036434 0)
(0.914532 -0.0334497 0)
(0.913065 -0.0901152 0)
(0.910746 -0.087304 0)
(0.908468 -0.0844167 0)
(0.906254 -0.0814603 0)
(0.904124 -0.0784372 0)
(0.902088 -0.075346 0)
(0.900149 -0.0721852 0)
(0.898307 -0.0689535 0)
(0.896549 -0.0656499 0)
(0.89485 -0.0622735 0)
(0.893166 -0.0588241 0)
(0.891421 -0.0553026 0)
(0.889504 -0.0517128 0)
(0.88727 -0.0480653 0)
(0.88456 -0.0443849 0)
(0.881259 -0.0407193 0)
(0.877399 -0.0371447 0)
(0.873272 -0.0337601 0)
(0.86949 -0.0306581 0)
(0.899098 -0.103026 0)
(0.895963 -0.100335 0)
(0.893004 -0.0974589 0)
(0.890208 -0.0944288 0)
(0.887566 -0.0912645 0)
(0.885077 -0.0879917 0)
(0.882747 -0.0846356 0)
(0.880583 -0.0812216 0)
(0.878599 -0.0777751 0)
(0.876812 -0.0743205 0)
(0.875258 -0.0708815 0)
(0.873989 -0.0674807 0)
(0.873097 -0.0641376 0)
(0.872714 -0.0608651 0)
(0.873012 -0.0576607 0)
(0.874155 -0.0544926 0)
(0.87619 -0.0512826 0)
(0.878883 -0.047899 0)
(0.881582 -0.0441807 0)
(0.883679 -0.122334 0)
(0.879958 -0.118265 0)
(0.876398 -0.114059 0)
(0.873019 -0.10972 0)
(0.869855 -0.105261 0)
(0.866925 -0.100683 0)
(0.864237 -0.095991 0)
(0.861796 -0.0911919 0)
(0.859593 -0.0862916 0)
(0.857612 -0.0812964 0)
(0.855815 -0.0762117 0)
(0.854136 -0.0710415 0)
(0.852465 -0.0657889 0)
(0.850622 -0.060459 0)
(0.848352 -0.0550676 0)
(0.845335 -0.0496579 0)
(0.841287 -0.04433 0)
(0.836193 -0.0392632 0)
(0.830626 -0.0347082 0)
(0.866545 -0.139918 0)
(0.861662 -0.135547 0)
(0.857084 -0.130781 0)
(0.852836 -0.125725 0)
(0.848919 -0.120413 0)
(0.845338 -0.114905 0)
(0.842109 -0.109258 0)
(0.839236 -0.103526 0)
(0.836728 -0.0977691 0)
(0.834591 -0.0920475 0)
(0.832836 -0.086423 0)
(0.831487 -0.0809591 0)
(0.830603 -0.0757206 0)
(0.830299 -0.0707713 0)
(0.830789 -0.066166 0)
(0.832404 -0.0619363 0)
(0.835534 -0.0580469 0)
(0.840386 -0.0543468 0)
(0.846537 -0.0505149 0)
(0.846677 -0.16396 0)
(0.840564 -0.157713 0)
(0.834848 -0.151183 0)
(0.829559 -0.144323 0)
(0.824745 -0.137185 0)
(0.820467 -0.129801 0)
(0.816742 -0.122206 0)
(0.813598 -0.114451 0)
(0.811039 -0.106581 0)
(0.80906 -0.0986431 0)
(0.807635 -0.0906778 0)
(0.806712 -0.0827184 0)
(0.806196 -0.0747868 0)
(0.805924 -0.0668931 0)
(0.805612 -0.0590408 0)
(0.804804 -0.051231 0)
(0.80282 -0.0435244 0)
(0.798931 -0.0360914 0)
(0.792805 -0.0293055 0)
(0.824931 -0.188311 0)
(0.81685 -0.181235 0)
(0.809362 -0.173292 0)
(0.802518 -0.164725 0)
(0.79642 -0.155626 0)
(0.791076 -0.146088 0)
(0.786554 -0.136242 0)
(0.782871 -0.126194 0)
(0.780051 -0.116074 0)
(0.778088 -0.106013 0)
(0.776971 -0.0961494 0)
(0.776679 -0.0866329 0)
(0.777201 -0.0776206 0)
(0.778562 -0.0692813 0)
(0.780884 -0.0617806 0)
(0.784465 -0.0553009 0)
(0.789925 -0.0499468 0)
(0.798056 -0.0457354 0)
(0.809608 -0.0424364 0)
(0.799592 -0.220309 0)
(0.789128 -0.210604 0)
(0.779338 -0.200117 0)
(0.770504 -0.188854 0)
(0.762631 -0.176835 0)
(0.755911 -0.16423 0)
(0.750392 -0.151134 0)
(0.746156 -0.137711 0)
(0.743231 -0.124114 0)
(0.74164 -0.110502 0)
(0.741366 -0.0970245 0)
(0.742364 -0.0838173 0)
(0.744543 -0.0709901 0)
(0.74775 -0.0586107 0)
(0.751715 -0.0467278 0)
(0.755997 -0.0352837 0)
(0.759672 -0.024308 0)
(0.761568 -0.0138685 0)
(0.759536 -0.00413006 0)
(0.772691 -0.255173 0)
(0.758381 -0.243921 0)
(0.745428 -0.231079 0)
(0.733578 -0.2167 0)
(0.723278 -0.201205 0)
(0.714551 -0.184683 0)
(0.707585 -0.167418 0)
(0.70244 -0.149641 0)
(0.699201 -0.131607 0)
(0.697868 -0.113585 0)
(0.698432 -0.0958553 0)
(0.700834 -0.0787153 0)
(0.704988 -0.0624809 0)
(0.710796 -0.0475187 0)
(0.718218 -0.0341662 0)
(0.727265 -0.0229608 0)
(0.73869 -0.0142097 0)
(0.753059 -0.00824373 0)
(0.772694 -0.00559099 0)
(0.74144 -0.299574 0)
(0.72322 -0.285264 0)
(0.705719 -0.268503 0)
(0.690191 -0.25015 0)
(0.676546 -0.229959 0)
(0.665193 -0.208398 0)
(0.656248 -0.18574 0)
(0.64991 -0.162313 0)
(0.646212 -0.138481 0)
(0.64524 -0.114593 0)
(0.646978 -0.0910064 0)
(0.651396 -0.0680726 0)
(0.658406 -0.0461329 0)
(0.667866 -0.0254345 0)
(0.679468 -0.00632241 0)
(0.693006 0.011418 0)
(0.70684 0.027605 0)
(0.720463 0.0422394 0)
(0.730267 0.0560255 0)
(0.710693 -0.350449 0)
(0.684787 -0.332929 0)
(0.661768 -0.312869 0)
(0.640883 -0.289409 0)
(0.62292 -0.263575 0)
(0.608062 -0.235758 0)
(0.596634 -0.206372 0)
(0.588649 -0.175967 0)
(0.584318 -0.144968 0)
(0.583607 -0.11384 0)
(0.586565 -0.0830432 0)
(0.593158 -0.053059 0)
(0.603322 -0.0243908 0)
(0.616901 0.00226786 0)
(0.633885 0.026491 0)
(0.653424 0.0468313 0)
(0.677407 0.0628201 0)
(0.704418 0.0732574 0)
(0.738022 0.0753168 0)
(0.673819 -0.412296 0)
(0.641398 -0.391781 0)
(0.610751 -0.365643 0)
(0.583557 -0.335776 0)
(0.560362 -0.302789 0)