/*--------------------------------*- C++ -*----------------------------------*\
  =========                 |
  \\      /  F ield         | OpenFOAM: The Open Source CFD Toolbox
   \\    /   O peration     | Website:  https://openfoam.org
    \\  /    A nd           | Version:  10
     \\/     M anipulation  |
\*---------------------------------------------------------------------------*/
FoamFile
{
    format      ascii;
    class       volVectorField;
    location    "0";
    object      U;
}
// * * * * * * * * * * * * * * * * * * * * * * * * * * * * * * * * * * * * * //

dimensions      [0 1 -1 0 0 0 0];

internalField   nonuniform List<vector> 
18483
(
(1.00001 -0.00018166 0)
(1 -0.000660313 0)
(1 -0.00107688 0)
(1 -0.00154566 0)
(1 -0.0020199 0)
(0.999998 -0.0025037 0)
(0.999996 -0.00297523 0)
(0.999993 -0.00341712 0)
(0.999989 -0.00381325 0)
(0.999983 -0.0041525 0)
(0.999975 -0.00442989 0)
(0.999965 -0.0046487 0)
(0.99995 -0.00481457 0)
(0.999931 -0.00496203 0)
(0.999899 -0.00513292 0)
(0.999845 -0.00536549 0)
(0.999734 -0.00564102 0)
(0.999422 -0.00586938 0)
(0.998523 -0.00596998 0)
(0.996533 -0.00588583 0)
(0.993617 -0.00563102 0)
(0.991171 -0.00533154 0)
(0.990622 -0.00508355 0)
(0.991867 -0.00485705 0)
(0.993777 -0.0046297 0)
(0.995492 -0.00441324 0)
(0.996738 -0.00421794 0)
(0.997556 -0.00404874 0)
(0.998066 -0.00390581 0)
(1.00056 -0.000506547 0)
(1.0006 -0.00182946 0)
(1.0007 -0.00298805 0)
(1.0008 -0.00430758 0)
(1.00092 -0.00565086 0)
(1.00102 -0.00703558 0)
(1.00109 -0.00839894 0)
(1.00111 -0.00969251 0)
(1.00109 -0.0108651 0)
(1.00103 -0.0118786 0)
(1.00092 -0.0127074 0)
(1.00078 -0.013365 0)
(1.00065 -0.0138787 0)
(1.00056 -0.0142083 0)
(1.00053 -0.0142886 0)
(1.00052 -0.0140442 0)
(1.00046 -0.0135044 0)
(1.00038 -0.0128546 0)
(1.00055 -0.0122741 0)
(1.00163 -0.011916 0)
(1.00393 -0.0118662 0)
(1.00634 -0.0119723 0)
(1.00702 -0.0120064 0)
(1.00567 -0.0119987 0)
(1.00351 -0.012017 0)
(1.00161 -0.0120434 0)
(1.00027 -0.0120588 0)
(0.999417 -0.012056 0)
(0.998887 -0.0120352 0)
(1.00157 -0.000787061 0)
(1.0017 -0.00282175 0)
(1.00196 -0.00460425 0)
(1.00225 -0.00664459 0)
(1.00257 -0.0087219 0)
(1.00285 -0.0108765 0)
(1.00305 -0.0130095 0)
(1.00313 -0.0150472 0)
(1.00309 -0.0169042 0)
(1.0029 -0.0185185 0)
(1.00259 -0.0198443 0)
(1.00219 -0.0208491 0)
(1.00177 -0.0215282 0)
(1.00137 -0.0218866 0)
(1.00095 -0.0220254 0)
(1.00043 -0.0221874 0)
(0.999788 -0.0225057 0)
(0.999 -0.0228711 0)
(0.997829 -0.0230854 0)
(0.995773 -0.0230044 0)
(0.992654 -0.0225504 0)
(0.989528 -0.0218171 0)
(0.988192 -0.0210763 0)
(0.989094 -0.0203994 0)
(0.990992 -0.0197152 0)
(0.992721 -0.019057 0)
(0.993926 -0.0184678 0)
(0.994676 -0.017961 0)
(0.995121 -0.0175358 0)
(1.00277 -0.00102598 0)
(1.00302 -0.00365397 0)
(1.00345 -0.00595257 0)
(1.00398 -0.00859313 0)
(1.00453 -0.0112814 0)
(1.00503 -0.0140851 0)
(1.00539 -0.0168801 0)
(1.00555 -0.019578 0)
(1.00546 -0.022067 0)
(1.00511 -0.024257 0)
(1.00453 -0.0260687 0)
(1.00376 -0.0274362 0)
(1.00285 -0.0283725 0)
(1.00185 -0.0289762 0)
(1.00079 -0.0293511 0)
(0.999729 -0.0293966 0)
(0.998749 -0.0288727 0)
(0.997876 -0.0278268 0)
(0.997319 -0.0266035 0)
(0.997721 -0.0255229 0)
(0.999583 -0.0247731 0)
(1.00192 -0.0243649 0)
(1.00255 -0.0240541 0)
(1.00074 -0.0237077 0)
(0.997898 -0.0234041 0)
(0.99545 -0.0231338 0)
(0.993764 -0.0228521 0)
(0.992686 -0.0225507 0)
(0.991995 -0.0222362 0)
(1.00401 -0.00122554 0)
(1.00437 -0.00433946 0)
(1.005 -0.0070598 0)
(1.00577 -0.0101967 0)
(1.0066 -0.0133957 0)
(1.00735 -0.0167565 0)
(1.00792 -0.0201408 0)
(1.00821 -0.0234537 0)
(1.00814 -0.0265577 0)
(1.0077 -0.0293308 0)
(1.00688 -0.0316696 0)
(1.00574 -0.0335136 0)
(1.00434 -0.0348717 0)
(1.00278 -0.0357547 0)
(1.00119 -0.0361565 0)
(0.999633 -0.0361339 0)
(0.998041 -0.0359584 0)
(0.996311 -0.0359323 0)
(0.994325 -0.0359817 0)
(0.991727 -0.0358132 0)
(0.988112 -0.0351971 0)
(0.984099 -0.0341226 0)
(0.981644 -0.0328958 0)
(0.981808 -0.0317358 0)
(0.983328 -0.0305755 0)
(0.984659 -0.0294302 0)
(0.985387 -0.0283819 0)
(0.985668 -0.0274605 0)
(0.985697 -0.0266693 0)
(1.00524 -0.00139178 0)
(1.00573 -0.00490248 0)
(1.00656 -0.00796929 0)
(1.0076 -0.0115204 0)
(1.00873 -0.0151535 0)
(1.00979 -0.0190058 0)
(1.01063 -0.0229314 0)
(1.01112 -0.0268358 0)
(1.01115 -0.0305638 0)
(1.01066 -0.0339758 0)
(1.00964 -0.0369531 0)
(1.00812 -0.0394101 0)
(1.00622 -0.041286 0)
(1.00408 -0.0425091 0)
(1.0018 -0.0431097 0)
(0.999452 -0.0431953 0)
(0.997119 -0.0427592 0)
(0.994962 -0.0416837 0)
(0.993214 -0.0400602 0)
(0.992373 -0.0383255 0)
(0.993068 -0.0369162 0)
(0.994762 -0.0359893 0)
(0.99516 -0.0352762 0)
(0.99274 -0.0345097 0)
(0.988833 -0.0338137 0)
(0.985419 -0.0332346 0)
(0.98304 -0.0326799 0)
(0.981442 -0.0321222 0)
(0.980334 -0.0315656 0)
(1.00649 -0.00153112 0)
(1.0071 -0.00536736 0)
(1.00814 -0.00872177 0)
(1.00946 -0.0126225 0)
(1.01091 -0.0166298 0)
(1.01232 -0.0209232 0)
(1.01349 -0.025357 0)
(1.01424 -0.0298498 0)
(1.01444 -0.034245 0)
(1.01396 -0.0383952 0)
(1.01278 -0.0421511 0)
(1.01095 -0.0453695 0)
(1.00858 -0.0479391 0)
(1.00579 -0.0497908 0)
(1.00269 -0.0509309 0)
(0.999401 -0.0513928 0)
(0.996093 -0.0513325 0)
(0.992863 -0.0510829 0)
(0.989707 -0.0508793 0)
(0.986286 -0.0505966 0)
(0.981863 -0.0498897 0)
(0.976455 -0.0485929 0)
(0.972125 -0.0469887 0)
(0.970965 -0.0454515 0)
(0.971976 -0.0438967 0)
(0.972899 -0.0422588 0)
(0.973073 -0.040707 0)
(0.972796 -0.0393196 0)
(0.972335 -0.0381104 0)
(1.00774 -0.00164733 0)
(1.00847 -0.00574879 0)
(1.00973 -0.0093407 0)
(1.01132 -0.013535 0)
(1.01312 -0.0178626 0)
(1.01489 -0.02255 0)
(1.01644 -0.0274595 0)
(1.01753 -0.0325331 0)
(1.01798 -0.0376206 0)
(1.01766 -0.0425648 0)
(1.0165 -0.0471832 0)
(1.01452 -0.0512963 0)
(1.01179 -0.0547699 0)
(1.00843 -0.0575091 0)
(1.00456 -0.0594536 0)
(1.00034 -0.0605895 0)
(0.995975 -0.0609386 0)
(0.991767 -0.0603974 0)
(0.988103 -0.0588697 0)
(0.985548 -0.056658 0)
(0.984853 -0.0543877 0)
(0.985948 -0.052573 0)
(0.986416 -0.0511718 0)
(0.983471 -0.049803 0)
(0.978005 -0.0485731 0)
(0.973031 -0.047656 0)
(0.969568 -0.0468498 0)
(0.967153 -0.0460498 0)
(0.965378 -0.0452566 0)
(1.00896 -0.00174196 0)
(1.00981 -0.00605323 0)
(1.01127 -0.00983561 0)
(1.01315 -0.0142691 0)
(1.0153 -0.018862 0)
(1.01746 -0.0238888 0)
(1.01942 -0.0292244 0)
(1.02093 -0.0348383 0)
(1.02177 -0.0405911 0)
(1.02175 -0.0463292 0)
(1.02076 -0.0518642 0)
(1.01875 -0.057004 0)
(1.01576 -0.0615776 0)
(1.01189 -0.065436 0)
(1.00731 -0.0684693 0)
(1.00218 -0.0706139 0)
(0.996723 -0.0718847 0)
(0.9912 -0.0724903 0)
(0.985795 -0.0727671 0)
(0.980437 -0.0728315 0)
(0.974316 -0.0724128 0)
(0.966794 -0.0711727 0)
(0.959818 -0.0692697 0)
(0.956869 -0.0672987 0)
(0.957631 -0.0653052 0)
(0.958506 -0.0630538 0)
(0.958145 -0.0608302 0)
(0.957196 -0.0588381 0)
(0.956104 -0.0570914 0)
(1.01012 -0.00181604 0)
(1.01109 -0.00628491 0)
(1.01275 -0.0102122 0)
(1.0149 -0.0148305 0)
(1.01739 -0.0196306 0)
(1.01996 -0.024933 0)
(1.02237 -0.0306272 0)
(1.02436 -0.0367144 0)
(1.02566 -0.043079 0)
(1.02604 -0.0495926 0)
(1.02533 -0.0560804 0)
(1.02343 -0.062338 0)
(1.02034 -0.0681434 0)
(1.01617 -0.0732844 0)
(1.01105 -0.0775893 0)
(1.00514 -0.0809196 0)
(0.998636 -0.0831825 0)
(0.991815 -0.0842577 0)
(0.985224 -0.083884 0)
(0.979711 -0.0820696 0)
(0.97647 -0.0794667 0)
(0.976254 -0.0769945 0)
(0.976854 -0.075084 0)
(0.973605 -0.0732888 0)
(0.966015 -0.0715238 0)
(0.958639 -0.0702374 0)
(0.953677 -0.0691829 0)
(0.950207 -0.0680856 0)
(0.947558 -0.0669783 0)
(1.0112 -0.00187119 0)
(1.01228 -0.00644976 0)
(1.01412 -0.0104792 0)
(1.01654 -0.0152303 0)
(1.01936 -0.0201793 0)
(1.02234 -0.0256901 0)
(1.02522 -0.0316681 0)
(1.02772 -0.0381507 0)
(1.02955 -0.0450564 0)
(1.03044 -0.0522915 0)
(1.03018 -0.0596981 0)
(1.02862 -0.0670653 0)
(1.02574 -0.0741405 0)
(1.02153 -0.0806643 0)
(1.0161 -0.0864114 0)
(1.00956 -0.091194 0)
(1.00206 -0.0948786 0)
(0.993857 -0.0974587 0)
(0.9854 -0.0992555 0)
(0.977059 -0.100713 0)
(0.968314 -0.101701 0)
(0.957867 -0.101516 0)
(0.947003 -0.0998412 0)
(0.94083 -0.0975197 0)
(0.940939 -0.0951303 0)
(0.942012 -0.0922516 0)
(0.940942 -0.0891861 0)
(0.939007 -0.0864458 0)
(0.937025 -0.084036 0)
(1.0122 -0.00190981 0)
(1.01338 -0.00655652 0)
(1.01539 -0.0106502 0)
(1.01805 -0.0154872 0)
(1.0212 -0.0205311 0)
(1.02458 -0.0261855 0)
(1.02793 -0.0323724 0)
(1.03096 -0.0391638 0)
(1.03338 -0.0465144 0)
(1.0349 -0.0543674 0)
(1.03528 -0.0625931 0)
(1.0343 -0.0710027 0)
(1.03184 -0.0793497 0)
(1.02781 -0.0873456 0)
(1.02225 -0.0946966 0)
(1.01524 -0.101117 0)
(1.00691 -0.106336 0)
(0.997529 -0.110076 0)
(0.987745 -0.111988 0)
(0.978708 -0.111757 0)
(0.971828 -0.109708 0)
(0.968688 -0.107075 0)
(0.96837 -0.105113 0)
(0.964804 -0.103577 0)
(0.95451 -0.101691 0)
(0.94328 -0.100127 0)
(0.935971 -0.0989618 0)
(0.931032 -0.0975796 0)
(0.927132 -0.0960724 0)
(1.0131 -0.0019348 0)
(1.01437 -0.0066156 0)
(1.01655 -0.0107421 0)
(1.01944 -0.0156253 0)
(1.02289 -0.0207171 0)
(1.02664 -0.0264567 0)
(1.03045 -0.0327801 0)
(1.03403 -0.0397899 0)
(1.03709 -0.0474754 0)
(1.03932 -0.0558244 0)
(1.04044 -0.0647555 0)
(1.04016 -0.0741263 0)
(1.03827 -0.0837162 0)
(1.03463 -0.0932187 0)
(1.02919 -0.102274 0)
(1.02196 -0.110506 0)
(1.01298 -0.117587 0)
(1.00247 -0.12332 0)
(0.990997 -0.127818 0)
(0.979293 -0.131706 0)
(0.967263 -0.135311 0)
(0.953426 -0.137634 0)
(0.93773 -0.137282 0)
(0.926002 -0.134765 0)
(0.923507 -0.131856 0)
(0.924537 -0.128453 0)
(0.922395 -0.124368 0)
(0.91875 -0.120652 0)
(0.915362 -0.117426 0)
(1.01392 -0.0019491 0)
(1.01527 -0.00663759 0)
(1.01759 -0.0107721 0)
(1.02069 -0.0156696 0)
(1.02442 -0.0207706 0)
(1.02854 -0.0265457 0)
(1.03279 -0.0329412 0)
(1.03691 -0.0400861 0)
(1.0406 -0.0480041 0)
(1.04356 -0.0567334 0)
(1.04546 -0.0662502 0)
(1.046 -0.0764667 0)
(1.0449 -0.0872 0)
(1.04195 -0.098155 0)
(1.03697 -0.108949 0)
(1.02985 -0.11915 0)
(1.02057 -0.128342 0)
(1.00936 -0.136137 0)
(0.996924 -0.142013 0)
(0.984435 -0.145193 0)
(0.973267 -0.145189 0)
(0.965357 -0.142971 0)
(0.961944 -0.14091 0)
(0.957809 -0.140188 0)
(0.945216 -0.139084 0)
(0.928505 -0.137348 0)
(0.917114 -0.136137 0)
(0.909976 -0.134546 0)
(0.904125 -0.132451 0)
(1.01466 -0.00195536 0)
(1.01608 -0.006632 0)
(1.01853 -0.0107559 0)
(1.02182 -0.0156435 0)
(1.02581 -0.0207239 0)
(1.03026 -0.0264948 0)
(1.03492 -0.0329096 0)
(1.03955 -0.0401193 0)
(1.04386 -0.0481803 0)
(1.04754 -0.0571769 0)
(1.0503 -0.0671409 0)
(1.05179 -0.0780447 0)
(1.0517 -0.0897665 0)
(1.04971 -0.102065 0)
(1.0455 -0.11458 0)
(1.03884 -0.126848 0)
(1.02961 -0.138371 0)
(1.01794 -0.148709 0)
(1.00434 -0.157559 0)
(0.989468 -0.16518 0)
(0.973596 -0.172397 0)
(0.955912 -0.178878 0)
(0.935233 -0.182171 0)
(0.91573 -0.180636 0)
(0.906657 -0.176883 0)
(0.906199 -0.172971 0)
(0.902877 -0.167833 0)
(0.896407 -0.162631 0)
(0.89073 -0.158281 0)
(1.01532 -0.0019558 0)
(1.01681 -0.00660682 0)
(1.01938 -0.0107069 0)
(1.02284 -0.0155669 0)
(1.02706 -0.020605 0)
(1.03181 -0.0263421 0)
(1.03685 -0.0327348 0)
(1.04195 -0.0399521 0)
(1.04685 -0.0480758 0)
(1.05127 -0.057229 0)
(1.05491 -0.0674958 0)
(1.05744 -0.078919 0)
(1.05849 -0.0914609 0)
(1.05763 -0.104962 0)
(1.05446 -0.11912 0)
(1.04862 -0.133485 0)
(1.03986 -0.147537 0)
(1.02824 -0.160777 0)
(1.01418 -0.17254 0)
(0.998581 -0.181657 0)
(0.98283 -0.186567 0)
(0.968816 -0.186818 0)
(0.959302 -0.184884 0)
(0.952962 -0.184797 0)
(0.939393 -0.185816 0)
(0.916451 -0.184678 0)
(0.897682 -0.183184 0)
(0.886761 -0.181554 0)
(0.877828 -0.178585 0)
(1.01592 -0.00195213 0)
(1.01747 -0.00656839 0)
(1.02014 -0.0106359 0)
(1.02375 -0.0154559 0)
(1.02819 -0.020437 0)
(1.0332 -0.0261193 0)
(1.03859 -0.0324586 0)
(1.04413 -0.0396371 0)
(1.04959 -0.0477551 0)
(1.05471 -0.0569678 0)
(1.05923 -0.0674095 0)
(1.06279 -0.0791972 0)
(1.06501 -0.0923837 0)
(1.06543 -0.106902 0)
(1.06357 -0.122539 0)
(1.05895 -0.138911 0)
(1.0512 -0.155512 0)
(1.04021 -0.17177 0)
(1.02612 -0.186946 0)
(1.00919 -0.200364 0)
(0.989698 -0.212577 0)
(0.967632 -0.224721 0)
(0.942086 -0.234832 0)
(0.914012 -0.237996 0)
(0.893264 -0.234333 0)
(0.886784 -0.229515 0)
(0.882183 -0.223879 0)
(0.871705 -0.216651 0)
(0.861938 -0.210526 0)
(1.01646 -0.00194566 0)
(1.01806 -0.0065216 0)
(1.02083 -0.0105511 0)
(1.02457 -0.0153231 0)
(1.0292 -0.0202381 0)
(1.03445 -0.0258516 0)
(1.04015 -0.032115 0)
(1.04609 -0.0392199 0)
(1.05206 -0.0472796 0)
(1.05783 -0.0564752 0)
(1.06316 -0.0669852 0)
(1.06773 -0.0789927 0)
(1.07117 -0.0926362 0)
(1.073 -0.107951 0)
(1.07268 -0.124837 0)
(1.06965 -0.143032 0)
(1.06338 -0.162104 0)
(1.05354 -0.181512 0)
(1.03996 -0.200511 0)
(1.02279 -0.217832 0)
(1.00305 -0.231391 0)
(0.982919 -0.238757 0)
(0.96528 -0.239874 0)
(0.952753 -0.239946 0)
(0.938219 -0.243875 0)
(0.910451 -0.246315 0)
(0.879898 -0.244739 0)
(0.861065 -0.243088 0)
(0.847331 -0.239352 0)
(1.01695 -0.00193736 0)
(1.0186 -0.00647001 0)
(1.02145 -0.0104589 0)
(1.02531 -0.015178 0)
(1.03011 -0.0200217 0)
(1.03557 -0.0255582 0)
(1.04155 -0.0317309 0)
(1.04784 -0.0387387 0)
(1.05427 -0.0467026 0)
(1.06064 -0.0558223 0)
(1.06673 -0.0663096 0)
(1.07228 -0.0784018 0)
(1.07694 -0.092318 0)
(1.08025 -0.108201 0)
(1.08162 -0.126084 0)
(1.08042 -0.145853 0)
(1.07603 -0.167208 0)
(1.0679 -0.189653 0)
(1.05561 -0.212398 0)
(1.03887 -0.234166 0)
(1.01763 -0.254011 0)
(0.991924 -0.273224 0)
(0.961635 -0.292828 0)
(0.926144 -0.307449 0)
(0.890315 -0.309441 0)
(0.868951 -0.303598 0)
(0.860184 -0.297971 0)
(0.845481 -0.289573 0)
(0.828186 -0.280483 0)
(1.0174 -0.00192791 0)
(1.01909 -0.00641624 0)
(1.02201 -0.0103636 0)
(1.02598 -0.0150276 0)
(1.03092 -0.0197981 0)
(1.03658 -0.0252536 0)
(1.0428 -0.0313272 0)
(1.04941 -0.0382233 0)
(1.05625 -0.0460655 0)
(1.06315 -0.0550638 0)
(1.06995 -0.0654531 0)
(1.07644 -0.0775152 0)
(1.0823 -0.0915431 0)
(1.08707 -0.107786 0)
(1.09017 -0.126405 0)
(1.09097 -0.147447 0)
(1.0888 -0.170774 0)
(1.08292 -0.195996 0)
(1.07254 -0.222442 0)
(1.05698 -0.249021 0)
(1.03613 -0.273876 0)
(1.01149 -0.293875 0)
(0.986011 -0.305156 0)
(0.963224 -0.30863 0)
(0.943973 -0.314462 0)
(0.914496 -0.324717 0)
(0.870386 -0.327358 0)
(0.834838 -0.325261 0)
(0.812596 -0.321839 0)
(1.0178 -0.00191784 0)
(1.01953 -0.00636213 0)
(1.02251 -0.0102686 0)
(1.02657 -0.014877 0)
(1.03166 -0.0195745 0)
(1.03748 -0.0249481 0)
(1.04392 -0.0309189 0)
(1.05081 -0.0376953 0)
(1.05802 -0.0453986 0)
(1.06541 -0.0542427 0)
(1.07286 -0.0644778 0)
(1.08019 -0.0764215 0)
(1.08716 -0.0904289 0)
(1.09334 -0.106844 0)
(1.09818 -0.125944 0)
(1.10108 -0.147926 0)
(1.10137 -0.17285 0)
(1.09813 -0.200489 0)
(1.09028 -0.230313 0)
(1.07688 -0.261358 0)
(1.05733 -0.29193 0)
(1.03118 -0.321233 0)
(0.997963 -0.351726 0)
(0.957027 -0.383042 0)
(0.908095 -0.402916 0)
(0.862862 -0.402576 0)
(0.838541 -0.395975 0)
(0.819761 -0.389553 0)
(0.791385 -0.377322 0)
(1.01816 -0.00190754 0)
(1.01993 -0.00630906 0)
(1.02296 -0.010176 0)
(1.0271 -0.0147297 0)
(1.03231 -0.0193564 0)
(1.03827 -0.0246493 0)
(1.04491 -0.0305168 0)
(1.05206 -0.0371704 0)
(1.05959 -0.0447254 0)
(1.06741 -0.0533951 0)
(1.07543 -0.0634386 0)
(1.08354 -0.0751993 0)
(1.09152 -0.0890795 0)
(1.09904 -0.105501 0)
(1.10559 -0.124848 0)
(1.1106 -0.147453 0)
(1.11345 -0.173575 0)
(1.11313 -0.203188 0)
(1.10831 -0.235922 0)
(1.09782 -0.271162 0)
(1.08064 -0.307686 0)
(1.05634 -0.343124 0)
(1.02676 -0.372885 0)
(0.99488 -0.390599 0)
(0.964101 -0.39941 0)
(0.931893 -0.41723 0)
(0.879959 -0.435783 0)
(0.817562 -0.436932 0)
(0.775158 -0.434135 0)
(1.01848 -0.00189732 0)
(1.02028 -0.00625798 0)
(1.02336 -0.0100875 0)
(1.02757 -0.0145883 0)
(1.03288 -0.0191472 0)
(1.03898 -0.0243625 0)
(1.04579 -0.0301288 0)
(1.05316 -0.0366605 0)
(1.06097 -0.0440639 0)
(1.06917 -0.0525491 0)
(1.0777 -0.062378 0)
(1.0865 -0.0739095 0)
(1.09541 -0.0875793 0)
(1.10417 -0.103872 0)
(1.11235 -0.123267 0)
(1.11942 -0.146213 0)
(1.12482 -0.173138 0)
(1.12757 -0.204244 0)
(1.12615 -0.239354 0)
(1.11918 -0.278156 0)
(1.10561 -0.319813 0)
(1.08413 -0.362368 0)
(1.05316 -0.405621 0)
(1.01136 -0.454011 0)
(0.956516 -0.504343 0)
(0.888218 -0.531339 0)
(0.828834 -0.52789 0)
(0.795045 -0.523501 0)
(0.756635 -0.514317 0)
(1.01877 -0.00188742 0)
(1.02059 -0.00620957 0)
(1.02372 -0.0100041 0)
(1.02799 -0.0144546 0)
(1.03339 -0.0189498 0)
(1.0396 -0.024091 0)
(1.04656 -0.0297602 0)
(1.05412 -0.0361739 0)
(1.06219 -0.0434275 0)
(1.07072 -0.0517256 0)
(1.0797 -0.061327 0)
(1.08911 -0.0725984 0)
(1.09887 -0.0859991 0)
(1.10877 -0.102061 0)
(1.11846 -0.121345 0)
(1.12748 -0.144395 0)
(1.13534 -0.171768 0)
(1.14116 -0.203886 0)
(1.14336 -0.240808 0)
(1.14035 -0.282454 0)
(1.13107 -0.328631 0)
(1.11389 -0.378324 0)
(1.08734 -0.428799 0)
(1.05305 -0.473278 0)
(1.01296 -0.501212 0)
(0.970142 -0.521833 0)
(0.916531 -0.563115 0)
(0.830425 -0.590946 0)
(0.742612 -0.587435 0)
(1.01902 -0.00187798 0)
(1.02087 -0.00616425 0)
(1.02403 -0.00992632 0)
(1.02835 -0.0143297 0)
(1.03384 -0.0187654 0)
(1.04014 -0.0238373 0)
(1.04724 -0.0294147 0)
(1.05496 -0.0357162 0)
(1.06325 -0.042825 0)
(1.07207 -0.0509383 0)
(1.08144 -0.0603079 0)
(1.0914 -0.0713024 0)
(1.10192 -0.0843966 0)
(1.11284 -0.100157 0)
(1.12391 -0.119205 0)
(1.13475 -0.142168 0)
(1.14494 -0.169692 0)
(1.15371 -0.202374 0)
(1.15958 -0.240544 0)
(1.16083 -0.284353 0)
(1.1563 -0.333993 0)
(1.14483 -0.389175 0)
(1.12371 -0.448186 0)
(1.08845 -0.511517 0)
(1.03708 -0.588227 0)
(0.965248 -0.672408 0)
(0.86645 -0.712234 0)
(0.77824 -0.705683 0)
(0.721156 -0.705657 0)
(1.01925 -0.00186911 0)
(1.02111 -0.00612228 0)
(1.02431 -0.00985449 0)
(1.02867 -0.014214 0)
(1.03423 -0.0185951 0)
(1.04062 -0.0236026 0)
(1.04784 -0.0290944 0)
(1.0557 -0.0352907 0)
(1.06418 -0.042262 0)
(1.07324 -0.0501969 0)
(1.08296 -0.0593378 0)
(1.0934 -0.0700505 0)
(1.10458 -0.0828185 0)
(1.11641 -0.0982312 0)
(1.12872 -0.116955 0)
(1.14122 -0.139682 0)
(1.15359 -0.167128 0)
(1.16512 -0.200005 0)
(1.17452 -0.238882 0)
(1.18017 -0.284194 0)
(1.18072 -0.336344 0)
(1.17517 -0.395831 0)
(1.16137 -0.463015 0)
(1.13525 -0.535309 0)
(1.09657 -0.602043 0)
(1.04651 -0.6464 0)
(0.98725 -0.693907 0)
(0.896043 -0.784122 0)
(0.745054 -0.816283 0)
(1.01945 -0.00186087 0)
(1.02133 -0.00608376 0)
(1.02455 -0.00978869 0)
(1.02896 -0.014108 0)
(1.03458 -0.0184391 0)
(1.04104 -0.0233873 0)
(1.04836 -0.0288002 0)
(1.05635 -0.0348992 0)
(1.06498 -0.0417416 0)
(1.07427 -0.0495077 0)
(1.08428 -0.0584283 0)
(1.09512 -0.0688632 0)
(1.10688 -0.0812984 0)
(1.11952 -0.0963381 0)
(1.13293 -0.114678 0)
(1.14693 -0.13706 0)
(1.16129 -0.164254 0)
(1.17537 -0.197046 0)
(1.18803 -0.236157 0)
(1.19797 -0.282325 0)
(1.20382 -0.336225 0)
(1.20438 -0.398546 0)
(1.19888 -0.470734 0)
(1.18295 -0.552648 0)
(1.14511 -0.643951 0)
(1.08513 -0.765181 0)
(1.00195 -0.919986 0)
(0.845885 -0.997426 0)
(0.665343 -0.981128 0)
(1.01962 -0.0018533 0)
(1.02152 -0.00604872 0)
(1.02476 -0.00972887 0)
(1.02921 -0.0140115 0)
(1.03488 -0.0182973 0)
(1.0414 -0.0231914 0)
(1.04881 -0.0285323 0)
(1.05691 -0.0345421 0)
(1.06569 -0.0412655 0)
(1.07515 -0.0488744 0)
(1.08542 -0.0575868 0)
(1.09661 -0.0677544 0)
(1.10887 -0.0798611 0)
(1.12222 -0.0945192 0)
(1.1366 -0.112445 0)
(1.15193 -0.13441 0)
(1.16806 -0.161227 0)
(1.18447 -0.193736 0)
(1.20011 -0.232735 0)
(1.21396 -0.27916 0)
(1.22512 -0.334076 0)
(1.23207 -0.398217 0)
(1.23402 -0.473346 0)
(1.22947 -0.563691 0)
(1.21083 -0.668545 0)
(1.1739 -0.768335 0)
(1.11551 -0.840597 0)
(1.03393 -0.961435 0)
(0.847162 -1.16225 0)
(1.01978 -0.0018464 0)
(1.02168 -0.00601707 0)
(1.02495 -0.00967485 0)
(1.02943 -0.0139243 0)
(1.03514 -0.0181693 0)
(1.04172 -0.0230144 0)
(1.04921 -0.0282902 0)
(1.0574 -0.0342189 0)
(1.06629 -0.0408338 0)
(1.07592 -0.0482979 0)
(1.0864 -0.0568167 0)
(1.0979 -0.0667318 0)
(1.11058 -0.0785219 0)
(1.12454 -0.0928025 0)
(1.13977 -0.110301 0)
(1.15627 -0.131812 0)
(1.17396 -0.158167 0)
(1.19247 -0.190248 0)
(1.21081 -0.228903 0)
(1.22812 -0.275121 0)
(1.24416 -0.330293 0)
(1.25764 -0.395519 0)
(1.26688 -0.47211 0)
(1.27353 -0.565175 0)
(1.27414 -0.677959 0)
(1.24415 -0.801435 0)
(1.18324 -0.983399 0)
(1.11124 -1.31425 0)
(0.783558 -1.45461 0)
(0.998377 -0.00378494 0)
(0.998574 -0.00367264 0)
(0.998693 -0.00355864 0)
(0.998743 -0.00344287 0)
(0.998729 -0.00332528 0)
(0.998651 -0.00320571 0)
(0.998502 -0.00308415 0)
(0.998269 -0.00296085 0)
(0.997934 -0.00283644 0)
(0.997474 -0.00271204 0)
(0.996869 -0.00258939 0)
(0.996099 -0.00247101 0)
(0.995155 -0.00236019 0)
(0.994042 -0.00226086 0)
(0.992787 -0.00217732 0)
(0.991443 -0.0021136 0)
(0.990086 -0.00207278 0)
(0.988816 -0.00205613 0)
(0.987744 -0.0020624 0)
(0.998557 -0.0120032 0)
(0.998334 -0.0119673 0)
(0.99818 -0.0119305 0)
(0.998084 -0.0118941 0)
(0.99804 -0.0118576 0)
(0.998053 -0.0118205 0)
(0.998134 -0.0117823 0)
(0.998302 -0.0117418 0)
(0.998584 -0.0116973 0)
(0.999015 -0.0116463 0)
(0.999632 -0.0115849 0)
(1.00047 -0.0115083 0)
(1.00157 -0.01141 0)
(1.00291 -0.0112823 0)
(1.0045 -0.0111166 0)
(1.00625 -0.0109046 0)
(1.00807 -0.0106394 0)
(1.0098 -0.0103173 0)
(1.01128 -0.00993956 0)
(0.995379 -0.0171774 0)
(0.995533 -0.0168443 0)
(0.995614 -0.0165052 0)
(0.99563 -0.0161595 0)
(0.995582 -0.0158072 0)
(0.995466 -0.0154478 0)
(0.995266 -0.0150803 0)
(0.994961 -0.0147041 0)
(0.994519 -0.0143186 0)
(0.993903 -0.0139241 0)
(0.993069 -0.0135212 0)
(0.991974 -0.0131126 0)
(0.990583 -0.0127022 0)
(0.988882 -0.0122965 0)
(0.986888 -0.0119035 0)
(0.984665 -0.0115329 0)
(0.98233 -0.011194 0)
(0.980053 -0.0108947 0)
(0.978039 -0.0106388 0)
(0.991532 -0.0219228 0)
(0.99118 -0.0216069 0)
(0.990885 -0.0212774 0)
(0.990631 -0.0209366 0)
(0.990408 -0.0205844 0)
(0.990215 -0.0202211 0)
(0.990062 -0.0198476 0)
(0.989966 -0.0194649 0)
(0.989959 -0.0190744 0)
(0.990086 -0.0186775 0)
(0.9904 -0.0182754 0)
(0.990964 -0.0178688 0)
(0.991839 -0.0174568 0)
(0.993069 -0.0170367 0)
(0.994665 -0.0166033 0)
(0.996586 -0.0161499 0)
(0.998725 -0.0156687 0)
(1.00091 -0.0151528 0)
(1.0029 -0.0145991 0)
(0.985604 -0.0259887 0)
(0.985442 -0.0253482 0)
(0.985223 -0.0246931 0)
(0.984956 -0.0240238 0)
(0.984645 -0.0233426 0)
(0.98429 -0.0226507 0)
(0.983883 -0.0219497 0)
(0.983411 -0.0212411 0)
(0.982852 -0.0205267 0)
(0.982174 -0.0198087 0)
(0.981333 -0.0190895 0)
(0.980278 -0.0183725 0)
(0.978952 -0.0176626 0)
(0.977307 -0.0169662 0)
(0.975323 -0.0162915 0)
(0.97303 -0.0156478 0)
(0.970528 -0.0150437 0)
(0.967995 -0.014485 0)
(0.965681 -0.0139714 0)
(0.979522 -0.0310255 0)
(0.978854 -0.0304897 0)
(0.978254 -0.0299364 0)
(0.977707 -0.029369 0)
(0.977205 -0.0287869 0)
(0.97675 -0.0281905 0)
(0.976351 -0.0275801 0)
(0.976029 -0.0269562 0)
(0.975816 -0.026319 0)
(0.975757 -0.0256685 0)
(0.975911 -0.0250037 0)
(0.97635 -0.0243224 0)
(0.97715 -0.0236202 0)
(0.978372 -0.02289 0)
(0.980047 -0.0221216 0)
(0.98214 -0.0213028 0)
(0.984527 -0.0204212 0)
(0.986988 -0.0194679 0)
(0.989219 -0.0184419 0)
(0.971827 -0.0370589 0)
(0.971298 -0.0360613 0)
(0.970733 -0.0350346 0)
(0.970145 -0.0339801 0)
(0.969539 -0.0329014 0)
(0.968918 -0.0318013 0)
(0.968276 -0.0306824 0)
(0.967602 -0.0295475 0)
(0.966874 -0.0283998 0)
(0.966057 -0.0272426 0)
(0.965098 -0.0260801 0)
(0.963927 -0.0249172 0)
(0.962461 -0.0237613 0)
(0.960615 -0.0226219 0)
(0.958331 -0.0215116 0)
(0.955615 -0.020445 0)
(0.95257 -0.0194355 0)
(0.949427 -0.0184916 0)
(0.946528 -0.0176115 0)
(0.964006 -0.0444846 0)
(0.962832 -0.0437153 0)
(0.961745 -0.0429166 0)
(0.96073 -0.0420921 0)
(0.959786 -0.041241 0)
(0.958914 -0.0403636 0)
(0.958127 -0.0394605 0)
(0.957444 -0.0385327 0)
(0.956896 -0.0375808 0)
(0.956529 -0.0366051 0)
(0.956404 -0.035605 0)
(0.956602 -0.0345776 0)
(0.957214 -0.0335176 0)
(0.958327 -0.0324152 0)
(0.959994 -0.0312561 0)
(0.962189 -0.030022 0)
(0.964766 -0.0286941 0)
(0.967435 -0.0272586 0)
(0.969783 -0.0257143 0)
(0.955033 -0.055568 0)
(0.953982 -0.0541193 0)
(0.952909 -0.0526256 0)
(0.951836 -0.0510889 0)
(0.950775 -0.0495132 0)
(0.949731 -0.0479012 0)
(0.948707 -0.0462553 0)
(0.947692 -0.0445784 0)
(0.946668 -0.0428729 0)
(0.945594 -0.041142 0)
(0.944411 -0.039389 0)
(0.943028 -0.0376191 0)
(0.941333 -0.0358397 0)
(0.939198 -0.0340623 0)
(0.93652 -0.0323033 0)
(0.93327 -0.0305835 0)
(0.929556 -0.0289243 0)
(0.925673 -0.0273408 0)
(0.92209 -0.0258332 0)
(0.945456 -0.065886 0)
(0.943616 -0.064785 0)
(0.941879 -0.063629 0)
(0.940233 -0.0624221 0)
(0.938675 -0.0611635 0)
(0.937211 -0.0598536 0)
(0.935849 -0.0584937 0)
(0.934608 -0.0570851 0)
(0.933514 -0.0556289 0)
(0.932609 -0.0541258 0)
(0.931955 -0.0525759 0)
(0.931638 -0.0509773 0)
(0.931766 -0.0493253 0)
(0.932457 -0.0476101 0)
(0.933799 -0.0458152 0)
(0.935792 -0.0439173 0)
(0.938279 -0.0418892 0)
(0.940896 -0.0397087 0)
(0.943097 -0.0373704 0)
(0.935144 -0.0819235 0)
(0.933331 -0.0799104 0)
(0.931505 -0.07783 0)
(0.929693 -0.0756849 0)
(0.927914 -0.0734776 0)
(0.926179 -0.0712081 0)
(0.924494 -0.068876 0)
(0.922854 -0.0664811 0)
(0.921242 -0.0640231 0)
(0.919623 -0.0615024 0)
(0.917936 -0.0589201 0)
(0.916085 -0.0562794 0)
(0.913939 -0.0535868 0)
(0.911335 -0.0508547 0)
(0.908119 -0.048104 0)
(0.904212 -0.0453655 0)
(0.899706 -0.0426767 0)
(0.894954 -0.0400726 0)
(0.890577 -0.0375693 0)
(0.924013 -0.0945443 0)
(0.921253 -0.0929598 0)
(0.918615 -0.0912595 0)
(0.916081 -0.0894511 0)
(0.913647 -0.0875386 0)
(0.911312 -0.0855283 0)
(0.909086 -0.0834269 0)
(0.90698 -0.0812413 0)
(0.905017 -0.0789785 0)
(0.903235 -0.0766446 0)
(0.901691 -0.0742455 0)
(0.900475 -0.0717853 0)
(0.899712 -0.0692656 0)
(0.899555 -0.0666819 0)
(0.90015 -0.0640202 0)
(0.901561 -0.0612525 0)
(0.903663 -0.0583369 0)
(0.906042 -0.0552269 0)
(0.908001 -0.051893 0)
(0.912198 -0.114557 0)
(0.90919 -0.11182 0)
(0.906193 -0.10898 0)
(0.903239 -0.106042 0)
(0.900356 -0.103005 0)
(0.897561 -0.0998659 0)
(0.894862 -0.0966205 0)
(0.892262 -0.0932653 0)
(0.889752 -0.0897977 0)
(0.887307 -0.0862164 0)
(0.884877 -0.0825212 0)
(0.882376 -0.0787144 0)
(0.879671 -0.0748012 0)
(0.876574 -0.070794 0)
(0.872872 -0.066717 0)
(0.868392 -0.0626131 0)
(0.863141 -0.0585464 0)
(0.857464 -0.054594 0)
(0.852129 -0.0508187 0)
(0.899442 -0.130266 0)
(0.8953 -0.12791 0)
(0.891315 -0.125312 0)
(0.887481 -0.122498 0)
(0.883785 -0.119484 0)
(0.880227 -0.116297 0)
(0.876814 -0.112959 0)
(0.873557 -0.109494 0)
(0.870476 -0.105926 0)
(0.867601 -0.102276 0)
(0.864982 -0.0985667 0)
(0.862699 -0.0948179 0)
(0.860879 -0.0910476 0)
(0.859699 -0.087268 0)
(0.859371 -0.0834787 0)
(0.86007 -0.0796562 0)
(0.861789 -0.0757418 0)
(0.864152 -0.0716427 0)
(0.866307 -0.0672602 0)
(0.885563 -0.154318 0)
(0.88067 -0.150505 0)
(0.875886 -0.146525 0)
(0.871226 -0.142369 0)
(0.866738 -0.138046 0)
(0.862453 -0.133546 0)
(0.858385 -0.12887 0)
(0.854548 -0.124021 0)
(0.850943 -0.119002 0)
(0.847558 -0.11382 0)
(0.844361 -0.108482 0)
(0.841289 -0.102996 0)
(0.838221 -0.097371 0)
(0.834965 -0.0916206 0)
(0.831245 -0.0857675 0)
(0.826747 -0.0798596 0)
(0.821259 -0.0739877 0)
(0.814943 -0.0682919 0)
(0.808619 -0.0629365 0)
(0.870497 -0.175284 0)
(0.864143 -0.171634 0)
(0.858005 -0.167463 0)
(0.852159 -0.162892 0)
(0.846591 -0.157945 0)
(0.841307 -0.15269 0)
(0.836335 -0.147182 0)
(0.831688 -0.141477 0)
(0.827387 -0.135632 0)
(0.823456 -0.129702 0)
(0.819926 -0.123744 0)
(0.816853 -0.117815 0)
(0.814331 -0.111971 0)
(0.812516 -0.106266 0)
(0.81165 -0.100742 0)
(0.812027 -0.0954145 0)
(0.813869 -0.0902401 0)
(0.81703 -0.0850871 0)
(0.820631 -0.0797283 0)
(0.853634 -0.204984 0)
(0.845638 -0.199377 0)
(0.838015 -0.193482 0)
(0.83071 -0.187169 0)
(0.823804 -0.180497 0)
(0.817382 -0.173475 0)
(0.811456 -0.166126 0)
(0.806072 -0.158496 0)
(0.801243 -0.150626 0)
(0.796978 -0.142564 0)
(0.793262 -0.134354 0)
(0.790053 -0.126035 0)
(0.787256 -0.117641 0)
(0.784693 -0.109199 0)
(0.782061 -0.100735 0)
(0.778901 -0.0922862 0)
(0.774666 -0.0839471 0)
(0.769015 -0.0759026 0)
(0.762416 -0.0684787 0)
(0.835217 -0.234112 0)
(0.825034 -0.228369 0)
(0.81521 -0.22149 0)
(0.805939 -0.213839 0)
(0.797339 -0.20548 0)
(0.789381 -0.196514 0)
(0.782186 -0.187084 0)
(0.775771 -0.177285 0)
(0.770181 -0.167248 0)
(0.765432 -0.157094 0)
(0.76154 -0.146956 0)
(0.758515 -0.136969 0)
(0.756388 -0.127274 0)
(0.755235 -0.118016 0)
(0.755227 -0.109336 0)
(0.756679 -0.101359 0)
(0.760043 -0.0941403 0)
(0.765653 -0.0876243 0)
(0.773101 -0.0814578 0)
(0.814511 -0.272857 0)
(0.801241 -0.2644 0)
(0.788631 -0.255207 0)
(0.776887 -0.245082 0)
(0.765926 -0.234018 0)
(0.756073 -0.222214 0)
(0.747316 -0.209711 0)
(0.739779 -0.196693 0)
(0.733496 -0.183302 0)
(0.728512 -0.169695 0)
(0.724817 -0.156025 0)
(0.722388 -0.142429 0)
(0.721137 -0.129027 0)
(0.720901 -0.115914 0)
(0.721379 -0.103152 0)
(0.722042 -0.0907761 0)
(0.722039 -0.0788739 0)
(0.7203 -0.0675637 0)
(0.715973 -0.0573019 0)
(0.792381 -0.314014 0)
(0.77497 -0.304874 0)
(0.75875 -0.293775 0)
(0.74331 -0.280825 0)
(0.729445 -0.266612 0)
(0.716963 -0.251086 0)
(0.706181 -0.23463 0)
(0.697142 -0.217439 0)
(0.689954 -0.199771 0)
(0.684624 -0.1819 0)
(0.681178 -0.164095 0)
(0.679571 -0.146641 0)
(0.679762 -0.129835 0)
(0.681699 -0.113991 0)
(0.685392 -0.0994347 0)
(0.690998 -0.0865286 0)
(0.698995 -0.0755102 0)
(0.710055 -0.0667085 0)
(0.725278 -0.0598973 0)
(0.766996 -0.366313 0)
(0.745097 -0.354258 0)
(0.723337 -0.339381 0)
(0.70384 -0.322918 0)
(0.685866 -0.304144 0)
(0.670198 -0.283837 0)
(0.65685 -0.26216 0)
(0.646047 -0.239469 0)
(0.637822 -0.216162 0)
(0.632287 -0.192562 0)
(0.629398 -0.169031 0)
(0.629147 -0.145905 0)
(0.631436 -0.123499 0)
(0.636104 -0.102092 0)
(0.642851 -0.0819131 0)
(0.651142 -0.0630195 0)
(0.659872 -0.0456613 0)
(0.667773 -0.0296737 0)
(0.67116 -0.0154163 0)
(0.742793 -0.425521 0)
(0.711672 -0.410419 0)
(0.684331 -0.39304 0)
(0.658354 -0.371333 0)
(0.635528 -0.347195 0)
(0.615736 -0.320721 0)
(0.599339 -0.29239 0)
(0.58637 -0.262889 0)
(0.577048 -0.232556 0)
(0.571252 -0.201932 0)
(0.569083 -0.171452 0)
(0.570442 -0.14158 0)
(0.575278 -0.112811 0)
(0.583471 -0.0856936 0)
(0.594904 -0.0608203 0)
(0.609462 -0.03911 0)
(0.627752 -0.0209341 0)
(0.649426 -0.00775624 0)
(0.67884 -0.000232653 0)
(0.711552 -0.496123 0)
(0.674475 -0.479421 0)
(0.637593 -0.455322 0)
(0.604804 -0.427581 0)
(0.576047 -0.396226 0)
(0.551707 -0.361645 0)
(0.531866 -0.325345 0)
(0.516854 -0.287432 0)
(0.506265 -0.2488 0)
(0.500396 -0.209856 0)
(0.499003 -0.171093 0)
(0.502179 -0.133005 0)