/*--------------------------------*- C++ -*----------------------------------*\
  =========                 |
  \\      /  F ield         | OpenFOAM: The Open Source CFD Toolbox
   \\    /   O peration     | Website:  https://openfoam.org
    \\  /    A nd           | Version:  10
     \\/     M anipulation  |
\*---------------------------------------------------------------------------*/
FoamFile
{
    format      ascii;
    class       volVectorField;
    location    "0";
    object      U;
}
// * * * * * * * * * * * * * * * * * * * * * * * * * * * * * * * * * * * * * //

dimensions      [0 1 -1 0 0 0 0];

internalField   nonuniform List<vector> 
18483
(
(1.00001 -0.000218333 0)
(1.00001 -0.000784263 0)
(1.00001 -0.00125154 0)
(1.00001 -0.00175128 0)
(1.00001 -0.00222736 0)
(1 -0.00268627 0)
(0.999995 -0.00310882 0)
(0.999989 -0.00348198 0)
(0.999984 -0.00379419 0)
(0.999982 -0.00403983 0)
(0.999983 -0.00422229 0)
(0.999988 -0.00436465 0)
(0.999996 -0.00451269 0)
(1.00001 -0.00473401 0)
(1.00003 -0.0050856 0)
(1.00002 -0.0055523 0)
(0.999795 -0.00603952 0)
(0.998715 -0.00643113 0)
(0.995664 -0.00663973 0)
(0.990533 -0.00663417 0)
(0.986086 -0.00651023 0)
(0.985729 -0.00636701 0)
(0.989058 -0.0061407 0)
(0.993049 -0.00582588 0)
(0.995975 -0.00551267 0)
(0.997748 -0.00524347 0)
(0.998733 -0.00502369 0)
(0.999235 -0.00484814 0)
(0.999433 -0.00470756 0)
(1.00065 -0.000563017 0)
(1.00068 -0.00201734 0)
(1.00075 -0.00323828 0)
(1.00082 -0.0045749 0)
(1.00089 -0.00587859 0)
(1.00094 -0.00717106 0)
(1.00095 -0.00839699 0)
(1.00093 -0.00951653 0)
(1.00086 -0.0104903 0)
(1.00074 -0.0112966 0)
(1.00061 -0.0119306 0)
(1.00048 -0.0123862 0)
(1.00041 -0.0126216 0)
(1.00042 -0.0125146 0)
(1.00049 -0.0119252 0)
(1.00051 -0.0108483 0)
(1.00055 -0.00946126 0)
(1.00117 -0.00803665 0)
(1.0036 -0.00688793 0)
(1.00834 -0.00633223 0)
(1.0127 -0.00636727 0)
(1.01265 -0.00658121 0)
(1.00841 -0.00678523 0)
(1.00368 -0.00699275 0)
(1.00053 -0.0071253 0)
(0.998827 -0.00715738 0)
(0.997979 -0.00711409 0)
(0.997584 -0.0070209 0)
(0.997434 -0.00690153 0)
(1.00172 -0.000830471 0)
(1.00182 -0.00295888 0)
(1.00201 -0.00475938 0)
(1.00223 -0.00676183 0)
(1.00245 -0.0087395 0)
(1.00262 -0.0107374 0)
(1.00271 -0.0126728 0)
(1.00269 -0.0144863 0)
(1.00254 -0.0161103 0)
(1.00228 -0.0174892 0)
(1.00193 -0.018576 0)
(1.00153 -0.0193332 0)
(1.00109 -0.0197725 0)
(1.00056 -0.020031 0)
(0.999847 -0.0203981 0)
(0.998893 -0.0210992 0)
(0.997703 -0.0220576 0)
(0.996042 -0.0229502 0)
(0.993265 -0.0233702 0)
(0.989147 -0.0229505 0)
(0.985457 -0.0216304 0)
(0.98504 -0.0200328 0)
(0.987888 -0.0187335 0)
(0.991159 -0.0176623 0)
(0.993197 -0.0167648 0)
(0.994162 -0.0160487 0)
(0.994537 -0.015473 0)
(0.994621 -0.0150069 0)
(0.994563 -0.0146262 0)
(1.00299 -0.00108342 0)
(1.00318 -0.00382989 0)
(1.00352 -0.00615103 0)
(1.00392 -0.00875096 0)
(1.00432 -0.011324 0)
(1.00466 -0.0139483 0)
(1.00487 -0.0165202 0)
(1.00489 -0.0189651 0)
(1.0047 -0.0211839 0)
(1.00429 -0.0230913 0)
(1.00368 -0.0246298 0)
(1.0029 -0.0257969 0)
(1.00199 -0.0266505 0)
(1.00102 -0.0272473 0)
(1.00011 -0.0274745 0)
(0.999379 -0.0270574 0)
(0.998775 -0.0259541 0)
(0.998318 -0.0245227 0)
(0.998537 -0.0231969 0)
(1.00027 -0.0223177 0)
(1.00276 -0.0220888 0)
(1.00307 -0.0221538 0)
(1.00018 -0.0219694 0)
(0.996485 -0.0216474 0)
(0.993934 -0.0213526 0)
(0.992514 -0.0210439 0)
(0.991723 -0.0207263 0)
(0.991254 -0.0204098 0)
(0.990961 -0.0201032 0)
(1.00432 -0.00134164 0)
(1.00459 -0.0047072 0)
(1.00509 -0.00754053 0)
(1.00569 -0.0107183 0)
(1.00632 -0.0138549 0)
(1.00686 -0.0170715 0)
(1.00724 -0.020247 0)
(1.00734 -0.023302 0)
(1.00712 -0.0261175 0)
(1.00655 -0.0285956 0)
(1.00564 -0.0306627 0)
(1.00444 -0.0322698 0)
(1.00308 -0.0333665 0)
(1.00165 -0.0338935 0)
(1.0002 -0.0339253 0)
(0.998653 -0.0338682 0)
(0.996872 -0.0341073 0)
(0.994737 -0.0345637 0)
(0.991897 -0.0348819 0)
(0.987933 -0.0347063 0)
(0.983457 -0.0338085 0)
(0.980728 -0.0324195 0)
(0.981212 -0.0311264 0)
(0.983282 -0.0299642 0)
(0.984856 -0.0287585 0)
(0.985606 -0.0276283 0)
(0.98589 -0.0266312 0)
(0.985952 -0.0257714 0)
(0.98591 -0.0250427 0)
(1.00568 -0.00159433 0)
(1.00605 -0.00556107 0)
(1.00672 -0.00889216 0)
(1.00752 -0.0126283 0)
(1.00839 -0.0163099 0)
(1.00918 -0.0201087 0)
(1.00976 -0.0238927 0)
(1.01 -0.0275908 0)
(1.00981 -0.0310726 0)
(1.00913 -0.0342185 0)
(1.00799 -0.0369097 0)
(1.00645 -0.039043 0)
(1.00461 -0.0405721 0)
(1.00253 -0.0415409 0)
(1.00028 -0.0420127 0)
(0.998 -0.0419167 0)
(0.995912 -0.041006 0)
(0.994151 -0.0392942 0)
(0.993036 -0.0373276 0)
(0.993289 -0.0356982 0)
(0.994869 -0.0347152 0)
(0.995527 -0.0342555 0)
(0.993076 -0.0336944 0)
(0.988735 -0.0329586 0)
(0.985122 -0.0323676 0)
(0.982905 -0.0318308 0)
(0.981559 -0.0312735 0)
(0.980676 -0.0307085 0)
(0.980057 -0.0301462 0)
(1.00713 -0.00182614 0)
(1.0076 -0.00634162 0)
(1.00843 -0.0101344 0)
(1.00946 -0.0143943 0)
(1.0106 -0.0185975 0)
(1.01166 -0.0229709 0)
(1.0125 -0.0273777 0)
(1.01295 -0.0317606 0)
(1.01288 -0.0359765 0)
(1.01221 -0.0398798 0)
(1.01093 -0.0433192 0)
(1.00906 -0.0461745 0)
(1.00671 -0.048377 0)
(1.00399 -0.0498763 0)
(1.00107 -0.0505827 0)
(0.998073 -0.0505743 0)
(0.995032 -0.0503184 0)
(0.991965 -0.0503007 0)
(0.98876 -0.0504448 0)
(0.984731 -0.0503021 0)
(0.97928 -0.0495068 0)
(0.973872 -0.0480248 0)
(0.971485 -0.0464357 0)
(0.972249 -0.0449728 0)
(0.97343 -0.0432931 0)
(0.973734 -0.0415539 0)
(0.973541 -0.0399712 0)
(0.973191 -0.0385711 0)
(0.972806 -0.0373633 0)
(1.00865 -0.00202792 0)
(1.00922 -0.0070183 0)
(1.01023 -0.0112207 0)
(1.01149 -0.0159553 0)
(1.01292 -0.0206444 0)
(1.0143 -0.0255719 0)
(1.01546 -0.0306002 0)
(1.0162 -0.0356908 0)
(1.01633 -0.0406978 0)
(1.01574 -0.0454696 0)
(1.01435 -0.04984 0)
(1.01215 -0.0536529 0)
(1.00925 -0.0567658 0)
(1.0058 -0.0590806 0)
(1.00191 -0.0605907 0)
(0.997723 -0.0613664 0)
(0.993545 -0.061314 0)
(0.989857 -0.0601427 0)
(0.987116 -0.057928 0)
(0.985945 -0.0553435 0)
(0.98682 -0.0531785 0)
(0.988041 -0.0517934 0)
(0.986029 -0.0506178 0)
(0.980263 -0.0492823 0)
(0.974343 -0.0482461 0)
(0.970443 -0.0474655 0)
(0.967974 -0.046662 0)
(0.966247 -0.0458352 0)
(0.964979 -0.0450016 0)
(1.01017 -0.00219764 0)
(1.01085 -0.00758449 0)
(1.01204 -0.0121387 0)
(1.01355 -0.0172905 0)
(1.01528 -0.022418 0)
(1.01702 -0.0278613 0)
(1.01855 -0.0334871 0)
(1.01964 -0.0392848 0)
(1.02007 -0.0451207 0)
(1.01966 -0.0508515 0)
(1.01829 -0.0562921 0)
(1.01594 -0.0612395 0)
(1.01269 -0.0655023 0)
(1.00867 -0.0689551 0)
(1.00404 -0.0715152 0)
(0.999053 -0.0730901 0)
(0.994002 -0.0737694 0)
(0.989075 -0.0741032 0)
(0.984287 -0.0746217 0)
(0.97905 -0.0750538 0)
(0.972051 -0.0746089 0)
(0.963735 -0.0728999 0)
(0.958129 -0.0706495 0)
(0.957702 -0.0685803 0)
(0.959088 -0.0662947 0)
(0.959103 -0.0637729 0)
(0.958206 -0.0614623 0)
(0.957169 -0.0594271 0)
(0.956161 -0.0576624 0)
(1.01165 -0.00233786 0)
(1.01243 -0.0080491 0)
(1.0138 -0.0128991 0)
(1.01556 -0.0184084 0)
(1.01761 -0.0239186 0)
(1.01972 -0.0298243 0)
(1.02166 -0.0360007 0)
(1.02318 -0.0424705 0)
(1.02402 -0.0491196 0)
(1.02396 -0.0558149 0)
(1.02284 -0.0623583 0)
(1.02058 -0.0685198 0)
(1.0172 -0.0740659 0)
(1.01279 -0.078797 0)
(1.00753 -0.0825533 0)
(1.00162 -0.0852589 0)
(0.995314 -0.0868986 0)
(0.989088 -0.087236 0)
(0.983634 -0.0858771 0)
(0.979713 -0.0830726 0)
(0.978273 -0.0799921 0)
(0.978872 -0.077829 0)
(0.977357 -0.0763849 0)
(0.970404 -0.07469 0)
(0.961529 -0.0731298 0)
(0.955378 -0.0720646 0)
(0.951595 -0.0709886 0)
(0.948826 -0.0698242 0)
(0.94672 -0.0686455 0)
(1.01306 -0.00245288 0)
(1.01394 -0.00842656 0)
(1.01549 -0.0135213 0)
(1.0175 -0.0193303 0)
(1.01987 -0.0251643 0)
(1.02236 -0.0314685 0)
(1.02475 -0.0381283 0)
(1.02676 -0.0452005 0)
(1.02811 -0.052595 0)
(1.02854 -0.0602019 0)
(1.02782 -0.067836 0)
(1.02578 -0.0752706 0)
(1.02237 -0.082242 0)
(1.01763 -0.0884953 0)
(1.0117 -0.0938235 0)
(1.00483 -0.0980658 0)
(0.997363 -0.101086 0)
(0.989713 -0.103018 0)
(0.982132 -0.10456 0)
(0.974408 -0.106188 0)
(0.965313 -0.10714 0)
(0.954071 -0.106167 0)
(0.944303 -0.103439 0)
(0.941226 -0.100512 0)
(0.942578 -0.0976366 0)
(0.942402 -0.0942652 0)
(0.940452 -0.0910306 0)
(0.938406 -0.0882233 0)
(0.936485 -0.0857582 0)
(1.01438 -0.00254686 0)
(1.01537 -0.00873104 0)
(1.01709 -0.0140253 0)
(1.01934 -0.0200808 0)
(1.02203 -0.0261801 0)
(1.02491 -0.0328146 0)
(1.02777 -0.03988 0)
(1.03031 -0.0474662 0)
(1.03224 -0.0555156 0)
(1.03324 -0.0639598 0)
(1.03304 -0.0726476 0)
(1.03139 -0.0813692 0)
(1.02818 -0.0898407 0)
(1.0234 -0.097742 0)
(1.01719 -0.104757 0)
(1.00977 -0.110588 0)
(1.00146 -0.115012 0)
(0.992668 -0.117829 0)
(0.984121 -0.118618 0)
(0.976722 -0.117039 0)
(0.971494 -0.113779 0)
(0.969239 -0.110719 0)
(0.967296 -0.109143 0)
(0.959895 -0.107792 0)
(0.947836 -0.105855 0)
(0.938322 -0.104361 0)
(0.932732 -0.10299 0)
(0.928558 -0.10131 0)
(0.925254 -0.099575 0)
(1.01562 -0.0026233 0)
(1.0167 -0.00897465 0)
(1.01859 -0.0144295 0)
(1.02108 -0.0206837 0)
(1.02407 -0.0269939 0)
(1.02734 -0.0338923 0)
(1.03066 -0.0412844 0)
(1.03375 -0.0492916 0)
(1.0363 -0.0578946 0)
(1.03796 -0.0670741 0)
(1.03843 -0.0767191 0)
(1.03741 -0.0866447 0)
(1.03472 -0.0965661 0)
(1.03025 -0.106125 0)
(1.024 -0.114941 0)
(1.0161 -0.12267 0)
(1.00677 -0.12904 0)
(0.99645 -0.133898 0)
(0.985688 -0.137608 0)
(0.974614 -0.141026 0)
(0.962518 -0.144201 0)
(0.948172 -0.145578 0)
(0.933476 -0.143593 0)
(0.925021 -0.139684 0)
(0.924356 -0.135992 0)
(0.923812 -0.13187 0)
(0.92027 -0.127437 0)
(0.91655 -0.123637 0)
(0.913257 -0.120294 0)
(1.01675 -0.00268508 0)
(1.01793 -0.00916752 0)
(1.01997 -0.0147497 0)
(1.02269 -0.0211612 0)
(1.02598 -0.0276338 0)
(1.02962 -0.0347358 0)
(1.0334 -0.0423803 0)
(1.03703 -0.0507169 0)
(1.04022 -0.0597631 0)
(1.04263 -0.0695491 0)
(1.04389 -0.0800117 0)
(1.04368 -0.0910134 0)
(1.0417 -0.102312 0)
(1.03771 -0.113567 0)
(1.03159 -0.124373 0)
(1.02339 -0.134306 0)
(1.01339 -0.142945 0)
(1.00212 -0.149866 0)
(0.990309 -0.154527 0)
(0.978944 -0.156121 0)
(0.968942 -0.154378 0)
(0.961711 -0.150901 0)
(0.957232 -0.148634 0)
(0.949633 -0.148001 0)
(0.934934 -0.146417 0)
(0.920364 -0.144261 0)
(0.9116 -0.142519 0)
(0.905405 -0.140183 0)
(0.900241 -0.13755 0)
(1.0178 -0.00273461 0)
(1.01906 -0.00931816 0)
(1.02125 -0.0149996 0)
(1.02418 -0.0215332 0)
(1.02774 -0.0281268 0)
(1.03174 -0.0353801 0)
(1.03595 -0.0432103 0)
(1.04012 -0.0517898 0)
(1.04396 -0.0611695 0)
(1.04713 -0.0714295 0)
(1.04925 -0.082566 0)
(1.04994 -0.0945114 0)
(1.04882 -0.107091 0)
(1.04556 -0.119999 0)
(1.03996 -0.132802 0)
(1.03198 -0.144979 0)
(1.02181 -0.156002 0)
(1.0098 -0.165389 0)
(0.996379 -0.172884 0)
(0.981822 -0.179162 0)
(0.96581 -0.185238 0)
(0.947661 -0.190264 0)
(0.927769 -0.191397 0)
(0.911519 -0.187712 0)
(0.905073 -0.182671 0)
(0.903165 -0.177875 0)
(0.897749 -0.172117 0)
(0.891228 -0.166799 0)
(0.885829 -0.162278 0)
(1.01875 -0.00277395 0)
(1.0201 -0.00943374 0)
(1.02242 -0.0151912 0)
(1.02554 -0.0218172 0)
(1.02937 -0.0284978 0)
(1.03369 -0.0358587 0)
(1.0383 -0.0438172 0)
(1.04298 -0.0525636 0)
(1.04745 -0.0621784 0)
(1.05138 -0.0727909 0)
(1.05438 -0.0844606 0)
(1.05605 -0.0971943 0)
(1.05598 -0.110889 0)
(1.05376 -0.125291 0)
(1.04907 -0.139992 0)
(1.04169 -0.154473 0)
(1.03158 -0.16819 0)
(1.019 -0.180603 0)
(1.00449 -0.191013 0)
(0.9889 -0.198346 0)
(0.973535 -0.201239 0)
(0.959931 -0.199633 0)
(0.949904 -0.196654 0)
(0.940607 -0.196252 0)
(0.924194 -0.196405 0)
(0.903184 -0.19407 0)
(0.888291 -0.191544 0)
(0.878829 -0.188583 0)
(0.870686 -0.18458 0)
(1.01963 -0.00280481 0)
(1.02105 -0.00952033 0)
(1.0235 -0.0153344 0)
(1.0268 -0.0220286 0)
(1.03086 -0.0287687 0)
(1.03548 -0.0362022 0)
(1.04047 -0.0442418 0)
(1.04562 -0.0530919 0)
(1.05068 -0.0628577 0)
(1.05534 -0.0737122 0)
(1.05924 -0.0857727 0)
(1.06197 -0.0991178 0)
(1.06309 -0.113728 0)
(1.06211 -0.129437 0)
(1.05857 -0.145926 0)
(1.05206 -0.162721 0)
(1.04247 -0.179217 0)
(1.02997 -0.194716 0)
(1.01496 -0.2084 0)
(0.997625 -0.219804 0)
(0.977742 -0.229939 0)
(0.955089 -0.239881 0)
(0.929827 -0.247174 0)
(0.90446 -0.247205 0)
(0.887306 -0.241377 0)
(0.880506 -0.235406 0)
(0.873045 -0.228806 0)
(0.862203 -0.221282 0)
(0.853109 -0.214954 0)
(1.02044 -0.00282863 0)
(1.02192 -0.00958304 0)
(1.02449 -0.0154382 0)
(1.02794 -0.0221806 0)
(1.03223 -0.0289586 0)
(1.03711 -0.0364374 0)
(1.04245 -0.0445208 0)
(1.04803 -0.053424 0)
(1.05364 -0.0632702 0)
(1.05901 -0.0742681 0)
(1.06379 -0.0865858 0)
(1.06759 -0.100373 0)
(1.06994 -0.115706 0)
(1.07031 -0.132529 0)
(1.06812 -0.150622 0)
(1.06291 -0.169568 0)
(1.05437 -0.188748 0)
(1.04249 -0.207471 0)
(1.02735 -0.224983 0)
(1.00911 -0.240198 0)
(0.988569 -0.251294 0)
(0.967992 -0.256178 0)
(0.950016 -0.255445 0)
(0.935434 -0.254799 0)
(0.917218 -0.257519 0)
(0.889907 -0.257589 0)
(0.864387 -0.254135 0)
(0.848374 -0.25051 0)
(0.835528 -0.244968 0)
(1.02118 -0.00284664 0)
(1.02272 -0.00962624 0)
(1.02539 -0.0155099 0)
(1.029 -0.0222848 0)
(1.03348 -0.0290838 0)
(1.03861 -0.0365869 0)
(1.04425 -0.0446852 0)
(1.05023 -0.0536019 0)
(1.05635 -0.0634719 0)
(1.06237 -0.074531 0)
(1.06799 -0.0869922 0)
(1.07282 -0.101074 0)
(1.07642 -0.116947 0)
(1.0782 -0.134659 0)
(1.07759 -0.154095 0)
(1.074 -0.174942 0)
(1.06694 -0.196668 0)
(1.05614 -0.218624 0)
(1.04157 -0.239998 0)
(1.0231 -0.259589 0)
(1.00049 -0.276738 0)
(0.973691 -0.292973 0)
(0.943014 -0.308837 0)
(0.908988 -0.318715 0)
(0.877207 -0.316833 0)
(0.858058 -0.309345 0)
(0.846524 -0.302504 0)
(0.830299 -0.293209 0)
(0.814233 -0.283916 0)
(1.02186 -0.00285985 0)
(1.02345 -0.00965372 0)
(1.02622 -0.0155561 0)
(1.02995 -0.022351 0)
(1.03462 -0.0291582 0)
(1.03997 -0.0366699 0)
(1.04589 -0.0447612 0)
(1.05223 -0.0536619 0)
(1.05881 -0.0635127 0)
(1.06543 -0.0745688 0)
(1.07182 -0.0870817 0)
(1.07764 -0.101329 0)
(1.08246 -0.117564 0)
(1.08573 -0.135933 0)
(1.08681 -0.15644 0)
(1.08504 -0.178917 0)
(1.07977 -0.202955 0)
(1.07059 -0.227961 0)
(1.05727 -0.253196 0)
(1.03929 -0.277561 0)
(1.01638 -0.299398 0)
(0.990188 -0.316024 0)
(0.963841 -0.324225 0)
(0.939709 -0.325927 0)
(0.916726 -0.33069 0)
(0.885097 -0.337534 0)
(0.845695 -0.336394 0)
(0.815667 -0.331744 0)
(0.794904 -0.325487 0)
(1.02247 -0.00286916 0)
(1.02411 -0.00966873 0)
(1.02697 -0.0155823 0)
(1.03082 -0.0223875 0)
(1.03565 -0.0291933 0)
(1.04119 -0.0367022 0)
(1.04737 -0.0447709 0)
(1.05403 -0.0536341 0)
(1.06102 -0.0634341 0)
(1.06819 -0.0744386 0)
(1.07529 -0.0869295 0)
(1.08204 -0.101231 0)
(1.08805 -0.117667 0)
(1.09279 -0.136485 0)
(1.09558 -0.157807 0)
(1.09573 -0.181611 0)
(1.09254 -0.207629 0)
(1.08546 -0.235374 0)
(1.07401 -0.264245 0)
(1.05739 -0.293201 0)
(1.03485 -0.320666 0)
(1.00633 -0.34631 0)
(0.971787 -0.372415 0)
(0.930833 -0.397636 0)
(0.884696 -0.410459 0)
(0.844405 -0.406161 0)
(0.820127 -0.398568 0)
(0.798045 -0.390407 0)
(0.77077 -0.377515 0)
(1.02303 -0.00287535 0)
(1.02471 -0.00967409 0)
(1.02765 -0.0155933 0)
(1.0316 -0.0224013 0)
(1.03659 -0.0291989 0)
(1.0423 -0.0366968 0)
(1.04869 -0.044732 0)
(1.05564 -0.0535434 0)
(1.06301 -0.0632703 0)
(1.07067 -0.0741871 0)
(1.07843 -0.0865985 0)
(1.08605 -0.100865 0)
(1.09317 -0.117373 0)
(1.0993 -0.136462 0)
(1.10378 -0.158359 0)
(1.10592 -0.183174 0)
(1.10499 -0.2108 0)
(1.10034 -0.240914 0)
(1.09126 -0.273064 0)
(1.07672 -0.306462 0)
(1.05563 -0.339773 0)
(1.02816 -0.370992 0)
(0.996502 -0.395993 0)
(0.962985 -0.409635 0)
(0.929827 -0.416915 0)
(0.893563 -0.431996 0)
(0.842768 -0.443754 0)
(0.788523 -0.440361 0)
(0.750629 -0.434095 0)
(1.02352 -0.00287909 0)
(1.02525 -0.00967215 0)
(1.02826 -0.0155927 0)
(1.0323 -0.0223981 0)
(1.03742 -0.029183 0)
(1.04328 -0.0366643 0)
(1.04988 -0.044659 0)
(1.05708 -0.0534093 0)
(1.06478 -0.0630481 0)
(1.07288 -0.0738521 0)
(1.08124 -0.0861418 0)
(1.08965 -0.100308 0)
(1.0978 -0.116785 0)
(1.10525 -0.135992 0)
(1.11137 -0.158248 0)
(1.11548 -0.183778 0)
(1.11688 -0.212645 0)
(1.11485 -0.244711 0)
(1.10854 -0.279684 0)
(1.09675 -0.31699 0)
(1.07826 -0.355533 0)
(1.05243 -0.393769 0)
(1.01826 -0.431894 0)
(0.974565 -0.473422 0)
(0.920258 -0.513965 0)
(0.85696 -0.53165 0)
(0.803168 -0.525284 0)
(0.76746 -0.519583 0)
(0.727673 -0.507756 0)
(1.02397 -0.00288095 0)
(1.02573 -0.00966493 0)
(1.02881 -0.0155839 0)
(1.03293 -0.0223826 0)
(1.03817 -0.0291519 0)
(1.04416 -0.0366131 0)
(1.05094 -0.0445633 0)
(1.05836 -0.0532475 0)
(1.06636 -0.0627894 0)
(1.07485 -0.073465 0)
(1.08374 -0.0856048 0)
(1.09286 -0.0996233 0)
(1.10195 -0.115991 0)
(1.11063 -0.135191 0)
(1.11831 -0.157624 0)
(1.12433 -0.183617 0)
(1.12802 -0.213383 0)
(1.12871 -0.246967 0)
(1.12546 -0.284254 0)
(1.11686 -0.324872 0)
(1.10164 -0.36823 0)
(1.07895 -0.41343 0)
(1.04817 -0.457986 0)
(1.01056 -0.495371 0)
(0.96774 -0.517849 0)
(0.921892 -0.537058 0)
(0.865459 -0.571401 0)
(0.78554 -0.588279 0)
(0.708884 -0.580614 0)
(1.02437 -0.00288139 0)
(1.02616 -0.00965402 0)
(1.02929 -0.0155691 0)
(1.03349 -0.0223587 0)
(1.03883 -0.0291108 0)
(1.04494 -0.0365497 0)
(1.05188 -0.0444538 0)
(1.05949 -0.0530701 0)
(1.06774 -0.0625111 0)
(1.07658 -0.0730505 0)
(1.08594 -0.085023 0)
(1.0957 -0.0988604 0)
(1.10565 -0.11506 0)
(1.11546 -0.134156 0)
(1.1246 -0.156621 0)
(1.13242 -0.182869 0)
(1.13832 -0.213229 0)
(1.1417 -0.247912 0)
(1.14163 -0.287 0)
(1.13655 -0.330326 0)
(1.12515 -0.377592 0)
(1.10689 -0.428389 0)
(1.07984 -0.48137 0)
(1.03993 -0.537284 0)
(0.986129 -0.603652 0)
(0.915807 -0.671974 0)
(0.82535 -0.69894 0)
(0.744074 -0.69156 0)
(0.684877 -0.688499 0)
(1.02472 -0.00288078 0)
(1.02654 -0.00964075 0)
(1.02973 -0.0155506 0)
(1.03398 -0.0223293 0)
(1.03942 -0.0290636 0)
(1.04563 -0.0364794 0)
(1.05271 -0.0443376 0)
(1.06049 -0.0528867 0)
(1.06897 -0.0622265 0)
(1.0781 -0.0726277 0)
(1.08787 -0.0844244 0)
(1.0982 -0.0980599 0)
(1.10892 -0.114053 0)
(1.11975 -0.132975 0)
(1.13022 -0.155361 0)
(1.13973 -0.181693 0)
(1.14773 -0.2124 0)
(1.15368 -0.247819 0)
(1.15674 -0.288209 0)
(1.15539 -0.333634 0)
(1.14817 -0.383998 0)
(1.13462 -0.439502 0)
(1.1133 -0.50038 0)
(1.08118 -0.564007 0)
(1.03802 -0.62016 0)
(0.984213 -0.656459 0)
(0.921462 -0.70163 0)
(0.830555 -0.77677 0)
(0.694158 -0.793894 0)
(1.02503 -0.00287944 0)
(1.02688 -0.00962613 0)
(1.03011 -0.0155297 0)
(1.03442 -0.0222968 0)
(1.03994 -0.0290134 0)
(1.04624 -0.0364059 0)
(1.05344 -0.0442198 0)
(1.06136 -0.052704 0)
(1.07004 -0.0619452 0)
(1.07943 -0.0722101 0)
(1.08956 -0.0838293 0)
(1.10039 -0.0972532 0)
(1.1118 -0.113016 0)
(1.12354 -0.131717 0)
(1.13521 -0.153939 0)
(1.14627 -0.180225 0)
(1.15622 -0.211077 0)
(1.1646 -0.246938 0)
(1.17063 -0.288179 0)
(1.17296 -0.335097 0)
(1.17021 -0.387871 0)
(1.16169 -0.446797 0)
(1.14701 -0.512781 0)
(1.12256 -0.585806 0)
(1.0784 -0.666636 0)
(1.01513 -0.77285 0)
(0.933108 -0.900805 0)
(0.791761 -0.95734 0)
(0.626472 -0.943985 0)
(1.02531 -0.00287759 0)
(1.02718 -0.00961097 0)
(1.03045 -0.0155078 0)
(1.03481 -0.0222629 0)
(1.0404 -0.0289624 0)
(1.04678 -0.0363324 0)
(1.05408 -0.0441042 0)
(1.06213 -0.052527 0)
(1.07098 -0.0616744 0)
(1.0806 -0.0718082 0)
(1.09104 -0.0832538 0)
(1.1023 -0.0964648 0)
(1.11431 -0.111986 0)
(1.12687 -0.130438 0)
(1.13961 -0.152441 0)
(1.15207 -0.178582 0)
(1.1638 -0.209428 0)
(1.17444 -0.245502 0)
(1.18322 -0.287245 0)
(1.18898 -0.335091 0)
(1.19076 -0.389574 0)
(1.18762 -0.451042 0)
(1.17887 -0.520551 0)
(1.16355 -0.601695 0)
(1.13674 -0.694231 0)
(1.09367 -0.778328 0)
(1.02827 -0.834729 0)
(0.943655 -0.947413 0)
(0.76831 -1.11896 0)
(1.02556 -0.00287543 0)
(1.02745 -0.00959585 0)
(1.03074 -0.0154858 0)
(1.03516 -0.0222291 0)
(1.0408 -0.0289123 0)
(1.04725 -0.0362608 0)
(1.05465 -0.0439935 0)
(1.06281 -0.0523591 0)
(1.0718 -0.0614185 0)
(1.08161 -0.0714286 0)
(1.09233 -0.0827081 0)
(1.10397 -0.0957113 0)
(1.1165 -0.110989 0)
(1.12977 -0.129179 0)
(1.14347 -0.150926 0)
(1.15717 -0.176857 0)
(1.1705 -0.207581 0)
(1.18319 -0.243689 0)
(1.19452 -0.285671 0)
(1.20339 -0.333994 0)
(1.20937 -0.389475 0)
(1.21176 -0.452799 0)
(1.20909 -0.52454 0)
(1.20297 -0.608667 0)
(1.19151 -0.70855 0)
(1.15128 -0.81731 0)
(1.08358 -0.978751 0)
(1.00861 -1.25597 0)
(0.710044 -1.34271 0)
(0.999431 -0.00459199 0)
(0.999273 -0.00448555 0)
(0.998938 -0.00437683 0)
(0.998399 -0.0042642 0)
(0.997626 -0.0041462 0)
(0.996592 -0.00402153 0)
(0.995283 -0.00388955 0)
(0.993705 -0.0037505 0)
(0.991892 -0.00360565 0)
(0.989914 -0.00345731 0)
(0.987873 -0.00330865 0)
(0.985902 -0.00316331 0)
(0.98415 -0.00302491 0)
(0.982766 -0.00289641 0)
(0.981877 -0.00277956 0)
(0.98157 -0.00267454 0)
(0.981871 -0.00257983 0)
(0.98274 -0.00249244 0)
(0.984071 -0.00240833 0)
(0.997433 -0.00677523 0)
(0.99754 -0.006648 0)
(0.997774 -0.00652027 0)
(0.998162 -0.00639792 0)
(0.998741 -0.00628538 0)
(0.999549 -0.00618696 0)
(1.00062 -0.00610626 0)
(1.00196 -0.00604522 0)
(1.00358 -0.0060035 0)
(1.00542 -0.00597796 0)
(1.0074 -0.00596246 0)
(1.00939 -0.00594829 0)
(1.01125 -0.00592513 0)
(1.01281 -0.00588256 0)
(1.0139 -0.00581181 0)
(1.01443 -0.00570747 0)
(1.01431 -0.0055686 0)
(1.01357 -0.0053991 0)
(1.01229 -0.00520713 0)
(0.994435 -0.0143067 0)
(0.994254 -0.0140076 0)
(0.994007 -0.0136994 0)
(0.993678 -0.0133801 0)
(0.993241 -0.0130485 0)
(0.992665 -0.0127035 0)
(0.991914 -0.0123453 0)
(0.990957 -0.0119755 0)
(0.989771 -0.0115983 0)
(0.988357 -0.0112206 0)
(0.986746 -0.0108521 0)
(0.985008 -0.0105046 0)
(0.983253 -0.0101905 0)
(0.98162 -0.00992118 0)
(0.980268 -0.00970407 0)
(0.979347 -0.00954093 0)
(0.978971 -0.00942631 0)
(0.979198 -0.00934757 0)
(0.980007 -0.00928633 0)
(0.99078 -0.0198173 0)
(0.990677 -0.0195443 0)
(0.990657 -0.0192737 0)
(0.990749 -0.0190088 0)
(0.990993 -0.0187502 0)
(0.991438 -0.0184985 0)
(0.992137 -0.0182534 0)
(0.99314 -0.0180128 0)
(0.994483 -0.017772 0)
(0.996172 -0.0175227 0)
(0.998173 -0.0172533 0)
(1.0004 -0.0169487 0)
(1.0027 -0.0165922 0)
(1.00489 -0.016168 0)
(1.00673 -0.015664 0)
(1.00802 -0.0150758 0)
(1.00856 -0.0144083 0)
(1.00827 -0.0136771 0)
(1.00714 -0.012906 0)
(0.985822 -0.0244197 0)
(0.985704 -0.0238353 0)
(0.985548 -0.0232379 0)
(0.98534 -0.0226253 0)
(0.985056 -0.0219956 0)
(0.984656 -0.0213452 0)
(0.984084 -0.0206704 0)
(0.983277 -0.0199684 0)
(0.982165 -0.0192385 0)
(0.980691 -0.0184837 0)
(0.978826 -0.0177115 0)
(0.976589 -0.0169351 0)
(0.974067 -0.0161723 0)
(0.971424 -0.0154436 0)
(0.968893 -0.0147685 0)
(0.966745 -0.014161 0)
(0.965249 -0.0136261 0)
(0.964609 -0.013157 0)
(0.964916 -0.012736 0)
(0.979595 -0.029606 0)
(0.979215 -0.0290739 0)
(0.978885 -0.0285269 0)
(0.978613 -0.0279691 0)
(0.978421 -0.0274016 0)
(0.978343 -0.0268267 0)
(0.978431 -0.0262474 0)
(0.978748 -0.0256665 0)
(0.979366 -0.0250858 0)
(0.980355 -0.0245046 0)
(0.981761 -0.0239178 0)
(0.983585 -0.0233152 0)
(0.985756 -0.0226808 0)
(0.98812 -0.0219943 0)
(0.990436 -0.0212343 0)
(0.992407 -0.0203837 0)
(0.993725 -0.0194347 0)
(0.994142 -0.0183932 0)
(0.993529 -0.0172788 0)
(0.972436 -0.0363204 0)
(0.972074 -0.0353376 0)
(0.971701 -0.0343337 0)
(0.971311 -0.0333102 0)
(0.970891 -0.0322692 0)
(0.970414 -0.0312105 0)
(0.969834 -0.0301325 0)
(0.969087 -0.0290326 0)
(0.968088 -0.0279081 0)
(0.966741 -0.0267568 0)
(0.964955 -0.0255798 0)
(0.962671 -0.0243831 0)
(0.959895 -0.0231789 0)
(0.956732 -0.0219859 0)
(0.953407 -0.0208262 0)
(0.950252 -0.0197214 0)
(0.947658 -0.0186854 0)
(0.945997 -0.0177198 0)
(0.945516 -0.0168122 0)
(0.964004 -0.044187 0)
(0.963178 -0.0433736 0)
(0.962426 -0.0425257 0)
(0.961744 -0.0416477 0)
(0.961135 -0.0407396 0)
(0.960615 -0.0398028 0)
(0.960211 -0.0388399 0)
(0.959968 -0.0378547 0)
(0.959951 -0.0368518 0)
(0.960242 -0.0358358 0)
(0.960927 -0.0348097 0)
(0.962077 -0.0337726 0)
(0.963708 -0.0327173 0)
(0.965748 -0.0316288 0)
(0.968007 -0.0304857 0)
(0.970176 -0.0292645 0)
(0.971872 -0.0279461 0)
(0.972721 -0.0265239 0)
(0.97246 -0.0250084 0)
(0.955248 -0.0561358 0)
(0.954391 -0.0546919 0)
(0.953541 -0.0532119 0)
(0.952702 -0.051698 0)
(0.951867 -0.0501536 0)
(0.951023 -0.04858 0)
(0.950143 -0.0469778 0)
(0.949182 -0.0453466 0)
(0.948071 -0.043685 0)
(0.946719 -0.041991 0)
(0.945016 -0.0402634 0)
(0.942851 -0.038504 0)
(0.940152 -0.0367201 0)
(0.936928 -0.0349273 0)
(0.933321 -0.0331489 0)
(0.92963 -0.0314127 0)
(0.926292 -0.0297428 0)
(0.923793 -0.0281504 0)
(0.922529 -0.0266267 0)
(0.945055 -0.067479 0)
(0.943607 -0.0663043 0)
(0.942251 -0.0650679 0)
(0.940981 -0.0637758 0)
(0.939795 -0.0624283 0)
(0.938699 -0.061027 0)
(0.937708 -0.0595743 0)
(0.936849 -0.0580735 0)
(0.936168 -0.0565291 0)
(0.935734 -0.0549459 0)
(0.935636 -0.0533287 0)
(0.935975 -0.0516797 0)
(0.936832 -0.0499953 0)
(0.938224 -0.0482627 0)
(0.940044 -0.0464578 0)
(0.942031 -0.0445479 0)
(0.943771 -0.0425005 0)
(0.944779 -0.0402975 0)
(0.944643 -0.037948 0)
(0.934753 -0.083613 0)
(0.933138 -0.0815704 0)
(0.931544 -0.079464 0)
(0.929982 -0.0772966 0)
(0.928454 -0.0750696 0)
(0.926954 -0.0727828 0)
(0.925468 -0.0704355 0)
(0.923967 -0.0680269 0)
(0.922401 -0.0655561 0)
(0.920698 -0.063022 0)
(0.918752 -0.0604249 0)
(0.916435 -0.0577681 0)
(0.913616 -0.0550619 0)
(0.910211 -0.0523283 0)
(0.906249 -0.0496044 0)
(0.901949 -0.0469407 0)
(0.897754 -0.0443915 0)
(0.894277 -0.0419961 0)
(0.892131 -0.0397577 0)
(0.922607 -0.0978402 0)
(0.920256 -0.0960722 0)
(0.918013 -0.094194 0)
(0.915867 -0.0922166 0)
(0.913815 -0.090147 0)
(0.91186 -0.0879933 0)
(0.91001 -0.0857648 0)
(0.908287 -0.0834716 0)
(0.906724 -0.0811246 0)
(0.905383 -0.0787353 0)
(0.904351 -0.0763153 0)
(0.903751 -0.073874 0)
(0.903723 -0.0714139 0)
(0.904386 -0.0689244 0)
(0.905764 -0.0663734 0)
(0.907696 -0.0637042 0)
(0.909773 -0.0608424 0)
(0.911362 -0.0577199 0)
(0.911771 -0.0543109 0)
(0.910283 -0.117339 0)
(0.907543 -0.114515 0)
(0.904862 -0.111584 0)
(0.902261 -0.108556 0)
(0.899754 -0.105429 0)
(0.897344 -0.102203 0)
(0.89503 -0.0988757 0)
(0.892799 -0.0954457 0)
(0.890622 -0.0919113 0)
(0.888445 -0.0882704 0)
(0.886181 -0.0845205 0)
(0.883697 -0.0806601 0)
(0.880812 -0.0766931 0)
(0.87733 -0.0726367 0)
(0.873105 -0.0685328 0)
(0.868159 -0.0644575 0)
(0.862829 -0.0605195 0)
(0.857827 -0.0568348 0)
(0.85413 -0.053479 0)
(0.896136 -0.134927 0)
(0.892466 -0.132193 0)
(0.888957 -0.129259 0)
(0.885602 -0.126142 0)
(0.882393 -0.122866 0)
(0.879335 -0.119455 0)
(0.876435 -0.115932 0)
(0.873702 -0.112321 0)
(0.871157 -0.108645 0)
(0.868837 -0.104931 0)
(0.866809 -0.101205 0)
(0.865184 -0.0974933 0)
(0.864127 -0.093823 0)
(0.863854 -0.0902096 0)
(0.864575 -0.0866445 0)
(0.866371 -0.0830744 0)
(0.869022 -0.0793861 0)
(0.871853 -0.0754194 0)
(0.873789 -0.0710272 0)
(0.880965 -0.158131 0)
(0.876525 -0.154143 0)
(0.872251 -0.149961 0)
(0.868153 -0.145602 0)
(0.864272 -0.141072 0)
(0.86062 -0.136371 0)
(0.857203 -0.131505 0)
(0.854026 -0.126479 0)
(0.851077 -0.121303 0)
(0.848331 -0.115983 0)
(0.845733 -0.110526 0)
(0.843185 -0.104935 0)
(0.840518 -0.0992099 0)
(0.837475 -0.0933556 0)
(0.83373 -0.0873923 0)
(0.828981 -0.0813846 0)
(0.823169 -0.075471 0)
(0.816786 -0.0698677 0)
(0.811069 -0.0648172 0)
(0.864172 -0.18055 0)
(0.858438 -0.176259 0)
(0.852955 -0.171552 0)
(0.84779 -0.166507 0)
(0.842925 -0.161155 0)
(0.838379 -0.155558 0)
(0.834169 -0.149766 0)
(0.830306 -0.14383 0)
(0.826804 -0.137808 0)
(0.823679 -0.131754 0)
(0.820963 -0.125727 0)
(0.818715 -0.11979 0)
(0.81705 -0.114007 0)
(0.816171 -0.108445 0)
(0.816388 -0.103159 0)
(0.818069 -0.0981689 0)
(0.821438 -0.0934033 0)
(0.826198 -0.0886538 0)
(0.831146 -0.0835727 0)
(0.845263 -0.209015 0)
(0.837997 -0.20307 0)
(0.831164 -0.196772 0)
(0.824698 -0.190059 0)
(0.818698 -0.183002 0)
(0.813209 -0.175612 0)
(0.808248 -0.16793 0)
(0.803851 -0.160004 0)
(0.800018 -0.151875 0)
(0.796751 -0.143593 0)
(0.794019 -0.135198 0)
(0.791766 -0.126725 0)
(0.789871 -0.118199 0)
(0.788117 -0.109633 0)
(0.786134 -0.10103 0)
(0.783371 -0.09241 0)
(0.779199 -0.0838661 0)
(0.773302 -0.0756304 0)
(0.766409 -0.0681467 0)
(0.824624 -0.238657 0)
(0.815346 -0.231972 0)
(0.806461 -0.224321 0)
(0.798223 -0.21602 0)
(0.790663 -0.207087 0)
(0.783805 -0.19764 0)
(0.777736 -0.187793 0)
(0.772463 -0.177643 0)
(0.768025 -0.167317 0)
(0.764421 -0.156935 0)
(0.76166 -0.146629 0)
(0.759741 -0.136537 0)
(0.758694 -0.126806 0)
(0.758604 -0.11759 0)
(0.759684 -0.109049 0)
(0.762349 -0.101338 0)
(0.76722 -0.0945438 0)
(0.774804 -0.0886224 0)
(0.784712 -0.0831391 0)
(0.801336 -0.275591 0)
(0.78912 -0.266485 0)
(0.777746 -0.256635 0)
(0.767194 -0.245821 0)
(0.757539 -0.234164 0)
(0.748998 -0.221805 0)
(0.741577 -0.208824 0)
(0.735392 -0.195396 0)
(0.730461 -0.181656 0)
(0.726822 -0.167763 0)
(0.724456 -0.153858 0)
(0.72333 -0.140077 0)
(0.723349 -0.12653 0)
(0.724344 -0.1133 0)
(0.726001 -0.100436 0)
(0.727759 -0.0879383 0)
(0.728659 -0.0758638 0)
(0.727451 -0.0642869 0)
(0.722963 -0.053666 0)
(0.776279 -0.315993 0)
(0.7604 -0.305678 0)
(0.745495 -0.293477 0)
(0.731623 -0.279726 0)
(0.719265 -0.264759 0)
(0.708342 -0.248615 0)
(0.699128 -0.231634 0)
(0.691645 -0.213991 0)
(0.685997 -0.195956 0)
(0.682182 -0.177782 0)
(0.680212 -0.159739 0)
(0.68004 -0.14211 0)
(0.681613 -0.125192 0)
(0.684883 -0.109307 0)
(0.689867 -0.0947899 0)
(0.696758 -0.0820421 0)
(0.706162 -0.0713217 0)
(0.718929 -0.0630487 0)
(0.73671 -0.0571445 0)
(0.748158 -0.365774 0)
(0.7276 -0.352455 0)
(0.70782 -0.336726 0)
(0.690053 -0.319281 0)
(0.673927 -0.299752 0)
(0.660096 -0.27881 0)
(0.648544 -0.256585 0)
(0.639513 -0.233474 0)
(0.633022 -0.209811 0)
(0.629166 -0.185935 0)
(0.627915 -0.162188 0)
(0.629252 -0.138899 0)
(0.633089 -0.116379 0)
(0.639273 -0.0948976 0)
(0.647521 -0.0746837 0)
(0.657338 -0.0557406 0)
(0.66755 -0.0383232 0)
(0.677011 -0.0222037 0)
(0.681507 -0.00751812 0)
(0.719978 -0.422351 0)
(0.691612 -0.406021 0)
(0.666273 -0.38721 0)
(0.642588 -0.364575 0)
(0.621994 -0.339705 0)
(0.604319 -0.312583 0)
(0.590005 -0.283834 0)
(0.579032 -0.253955 0)
(0.571603 -0.223358 0)
(0.567645 -0.192518 0)
(0.567223 -0.161867 0)
(0.570271 -0.131858 0)
(0.576735 -0.102979 0)
(0.586507 -0.0757887 0)
(0.599473 -0.0508551 0)
(0.615472 -0.0291931 0)
(0.635385 -0.0111416 0)
(0.658589 0.00178833 0)
(0.689957 0.00848813 0)
(0.686196 -0.489312 0)
(0.651357 -0.470811 0)
(0.617381 -0.445561 0)
(0.58743 -0.417053 0)
(0.56121 -0.384915 0)
(0.539396 -0.350047 0)
(0.521884 -0.313402 0)
(0.509009 -0.275353 0)
(0.500479 -0.236602 0)
(0.496491 -0.197576 0)
(0.49691 -0.158751 0)