/*--------------------------------*- C++ -*----------------------------------*\
  =========                 |
  \\      /  F ield         | OpenFOAM: The Open Source CFD Toolbox
   \\    /   O peration     | Website:  https://openfoam.org
    \\  /    A nd           | Version:  10
     \\/     M anipulation  |
\*---------------------------------------------------------------------------*/
FoamFile
{
    format      ascii;
    class       volVectorField;
    location    "0";
    object      U;
}
// * * * * * * * * * * * * * * * * * * * * * * * * * * * * * * * * * * * * * //

dimensions      [0 1 -1 0 0 0 0];

internalField   nonuniform List<vector> 
18483
(
(1 -0.000183686 0)
(1 -0.000652726 0)
(1 -0.00103035 0)
(1 -0.00142796 0)
(1.00001 -0.00179436 0)
(1.00001 -0.00213556 0)
(1.00001 -0.00243621 0)
(1.00001 -0.00268595 0)
(1.00002 -0.00287575 0)
(1.00002 -0.003 0)
(1.00003 -0.00305837 0)
(1.00003 -0.00305454 0)
(1.00004 -0.0029953 0)
(1.00004 -0.00290947 0)
(1.00003 -0.00283823 0)
(0.999984 -0.00281262 0)
(0.999878 -0.00279797 0)
(0.999579 -0.00271118 0)
(0.998745 -0.00248803 0)
(0.99695 -0.00211864 0)
(0.994353 -0.0017246 0)
(0.992197 -0.00148697 0)
(0.991742 -0.00140715 0)
(0.992848 -0.00133588 0)
(0.994464 -0.00120406 0)
(0.995856 -0.00103272 0)
(0.996842 -0.000852975 0)
(0.997485 -0.00068438 0)
(0.997891 -0.000535352 0)
(1.00056 -0.000539906 0)
(1.00058 -0.00190547 0)
(1.00062 -0.00300496 0)
(1.00065 -0.00416966 0)
(1.00067 -0.00524304 0)
(1.00068 -0.00624917 0)
(1.00065 -0.00714259 0)
(1.00058 -0.00789571 0)
(1.00047 -0.00848308 0)
(1.00031 -0.00889362 0)
(1.00012 -0.00913234 0)
(0.999901 -0.00923636 0)
(0.99968 -0.00925107 0)
(0.999487 -0.00915437 0)
(0.999332 -0.00889333 0)
(0.99918 -0.00841751 0)
(0.998964 -0.00777895 0)
(0.99872 -0.00715371 0)
(0.998857 -0.00669302 0)
(1.00026 -0.00646874 0)
(1.00341 -0.00630457 0)
(1.00678 -0.00586161 0)
(1.0079 -0.00516372 0)
(1.00641 -0.00456831 0)
(1.00398 -0.00422808 0)
(1.00192 -0.00405719 0)
(1.00049 -0.00396223 0)
(0.999561 -0.00389125 0)
(0.998966 -0.0038224 0)
(1.00165 -0.000873485 0)
(1.0017 -0.00306997 0)
(1.00182 -0.00485537 0)
(1.00193 -0.00677372 0)
(1.00203 -0.00856787 0)
(1.00206 -0.0102907 0)
(1.00201 -0.011868 0)
(1.00185 -0.0132576 0)
(1.00159 -0.0144129 0)
(1.00121 -0.0153079 0)
(1.00076 -0.0159328 0)
(1.00028 -0.0162786 0)
(0.99984 -0.0163368 0)
(0.999486 -0.01613 0)
(0.999168 -0.0157683 0)
(0.998811 -0.0154511 0)
(0.998383 -0.0152794 0)
(0.997801 -0.0151186 0)
(0.996562 -0.0147582 0)
(0.993642 -0.0141069 0)
(0.988623 -0.0133671 0)
(0.983564 -0.0129281 0)
(0.98188 -0.0127995 0)
(0.984013 -0.0125647 0)
(0.98735 -0.0120386 0)
(0.990016 -0.0113805 0)
(0.991746 -0.0107361 0)
(0.992803 -0.0101653 0)
(0.993443 -0.00968472 0)
(1.003 -0.00117912 0)
(1.00311 -0.00413412 0)
(1.00334 -0.00656566 0)
(1.00357 -0.00922264 0)
(1.00379 -0.0117578 0)
(1.0039 -0.0142583 0)
(1.00388 -0.016624 0)
(1.00368 -0.0187938 0)
(1.00328 -0.0206881 0)
(1.00269 -0.0222442 0)
(1.00194 -0.0234083 0)
(1.00109 -0.0241441 0)
(1.00016 -0.0244699 0)
(0.999144 -0.0245057 0)
(0.99805 -0.0243665 0)
(0.996913 -0.0239459 0)
(0.995782 -0.0230295 0)
(0.994738 -0.0216969 0)
(0.994339 -0.0203186 0)
(0.996112 -0.0191726 0)
(1.00114 -0.0182009 0)
(1.00689 -0.0170477 0)
(1.00842 -0.0156939 0)
(1.00487 -0.0146373 0)
(0.99995 -0.0140915 0)
(0.996269 -0.0138169 0)
(0.993979 -0.0136075 0)
(0.992589 -0.013392 0)
(0.991719 -0.0131539 0)
(1.00443 -0.00145194 0)
(1.00463 -0.00508094 0)
(1.00499 -0.008101 0)
(1.00538 -0.0114502 0)
(1.00576 -0.014704 0)
(1.00603 -0.0179892 0)
(1.00611 -0.0211843 0)
(1.00592 -0.0242136 0)
(1.00543 -0.0269655 0)
(1.00463 -0.0293476 0)
(1.00353 -0.0312852 0)
(1.00218 -0.0327621 0)
(1.00064 -0.0338194 0)
(0.999015 -0.0345002 0)
(0.997443 -0.0348183 0)
(0.995996 -0.034855 0)
(0.994604 -0.0348743 0)
(0.993079 -0.0350784 0)
(0.990838 -0.0352591 0)
(0.986404 -0.0350184 0)
(0.978613 -0.034266 0)
(0.970281 -0.0334085 0)
(0.96757 -0.0327343 0)
(0.971623 -0.0318715 0)
(0.977218 -0.0305807 0)
(0.980923 -0.0291537 0)
(0.982865 -0.027838 0)
(0.983812 -0.0267008 0)
(0.984241 -0.0257513 0)
(1.0059 -0.0016928 0)
(1.0062 -0.00591053 0)
(1.00673 -0.00945007 0)
(1.00733 -0.0134174 0)
(1.00795 -0.0173229 0)
(1.00845 -0.0213407 0)
(1.00872 -0.025335 0)
(1.00865 -0.0292265 0)
(1.00817 -0.0328773 0)
(1.00726 -0.0361661 0)
(1.00591 -0.0389829 0)
(1.00421 -0.0412534 0)
(1.0023 -0.0429127 0)
(1.00031 -0.0438699 0)
(0.998303 -0.0441292 0)
(0.996256 -0.0437681 0)
(0.994112 -0.042741 0)
(0.991937 -0.0409566 0)
(0.990333 -0.0386395 0)
(0.991134 -0.0364201 0)
(0.996223 -0.0348787 0)
(1.00299 -0.0338897 0)
(1.00431 -0.0328936 0)
(0.998063 -0.0319858 0)
(0.990132 -0.0315235 0)
(0.984825 -0.0312828 0)
(0.981832 -0.0310048 0)
(0.980088 -0.0306625 0)
(0.979006 -0.0302646 0)
(1.00743 -0.00190597 0)
(1.00784 -0.00663563 0)
(1.00855 -0.0106242 0)
(1.0094 -0.0151243 0)
(1.01032 -0.0195907 0)
(1.01112 -0.0242513 0)
(1.01168 -0.028963 0)
(1.01184 -0.0336527 0)
(1.01149 -0.0381645 0)
(1.01057 -0.0423478 0)
(1.00907 -0.046047 0)
(1.00705 -0.0491254 0)
(1.00462 -0.0515022 0)
(1.00186 -0.0531638 0)
(0.998816 -0.0542224 0)
(0.995587 -0.054884 0)
(0.992275 -0.0554365 0)
(0.988915 -0.0561921 0)
(0.985228 -0.0572005 0)
(0.979902 -0.0579552 0)
(0.971094 -0.0576598 0)
(0.960711 -0.0561365 0)
(0.956042 -0.0542284 0)
(0.960122 -0.0524497 0)
(0.966463 -0.050431 0)
(0.96997 -0.0482835 0)
(0.971243 -0.046353 0)
(0.971561 -0.0446882 0)
(0.971471 -0.0432875 0)
(1.00901 -0.00209559 0)
(1.00952 -0.00727093 0)
(1.01043 -0.0116436 0)
(1.01155 -0.0165931 0)
(1.01278 -0.0215255 0)
(1.01393 -0.0267254 0)
(1.01483 -0.0320504 0)
(1.01529 -0.0374464 0)
(1.01516 -0.0427566 0)
(1.01431 -0.0478183 0)
(1.01269 -0.0524495 0)
(1.01034 -0.0564786 0)
(1.00735 -0.0597973 0)
(1.00389 -0.0623221 0)
(1.00015 -0.0639546 0)
(0.996367 -0.0645821 0)
(0.992714 -0.0640737 0)
(0.989334 -0.0623034 0)
(0.986521 -0.0594417 0)
(0.985344 -0.0561926 0)
(0.987727 -0.0535753 0)
(0.99303 -0.0523088 0)
(0.994537 -0.0517814 0)
(0.98752 -0.0509792 0)
(0.977493 -0.0502524 0)
(0.970787 -0.0498354 0)
(0.967119 -0.0493512 0)
(0.964863 -0.0487661 0)
(0.963355 -0.0481171 0)
(1.01058 -0.00226384 0)
(1.01121 -0.00782591 0)
(1.01231 -0.0125245 0)
(1.01368 -0.0178474 0)
(1.01524 -0.0231566 0)
(1.01676 -0.0287949 0)
(1.01805 -0.0346289 0)
(1.01888 -0.0406362 0)
(1.01905 -0.0466746 0)
(1.01839 -0.0525829 0)
(1.01681 -0.0581612 0)
(1.01431 -0.0631913 0)
(1.01098 -0.0674779 0)
(1.00698 -0.0708477 0)
(1.00244 -0.0731924 0)
(0.99748 -0.0745818 0)
(0.992188 -0.0753794 0)
(0.986757 -0.0761914 0)
(0.981318 -0.0774406 0)
(0.975208 -0.0788302 0)
(0.966496 -0.0793367 0)
(0.955098 -0.0780748 0)
(0.946983 -0.0754113 0)
(0.94796 -0.0727187 0)
(0.953369 -0.0701508 0)
(0.956125 -0.0672813 0)
(0.956325 -0.064599 0)
(0.955766 -0.0622758 0)
(0.95496 -0.0602788 0)
(1.01211 -0.0024115 0)
(1.01284 -0.00830551 0)
(1.01413 -0.0132777 0)
(1.01575 -0.0189058 0)
(1.01764 -0.0245122 0)
(1.01954 -0.0304971 0)
(1.02124 -0.036741 0)
(1.0225 -0.04326 0)
(1.02308 -0.049936 0)
(1.02277 -0.0566228 0)
(1.02141 -0.0631191 0)
(1.01893 -0.0691866 0)
(1.01534 -0.0745917 0)
(1.01075 -0.0791513 0)
(1.00528 -0.0827498 0)
(0.9992 -0.0853026 0)
(0.992974 -0.0866278 0)
(0.987195 -0.0863397 0)
(0.982285 -0.0841493 0)
(0.978594 -0.0804828 0)
(0.9774 -0.0765065 0)
(0.97986 -0.0735471 0)
(0.981612 -0.072252 0)
(0.975379 -0.0713757 0)
(0.963672 -0.0701657 0)
(0.954873 -0.0693386 0)
(0.950034 -0.0685654 0)
(0.946821 -0.0675875 0)
(0.944484 -0.0665351 0)
(1.01356 -0.00253942 0)
(1.0144 -0.00871457 0)
(1.01585 -0.0139133 0)
(1.01772 -0.0197874 0)
(1.01992 -0.0256223 0)
(1.02219 -0.0318725 0)
(1.02433 -0.0384339 0)
(1.02607 -0.0453637 0)
(1.02715 -0.0525797 0)
(1.02728 -0.0599719 0)
(1.02626 -0.0673648 0)
(1.02392 -0.074531 0)
(1.02024 -0.0812084 0)
(1.01527 -0.0871284 0)
(1.00923 -0.0920133 0)
(1.0024 -0.0956212 0)
(0.995113 -0.0978968 0)
(0.987602 -0.0993099 0)
(0.97989 -0.100771 0)
(0.971643 -0.102668 0)
(0.96173 -0.104239 0)
(0.949282 -0.104117 0)
(0.93776 -0.101524 0)
(0.934125 -0.0977431 0)
(0.937433 -0.094267 0)
(0.939345 -0.090573 0)
(0.93812 -0.0868727 0)
(0.93628 -0.08371 0)
(0.934437 -0.0809743 0)
(1.01494 -0.0026492 0)
(1.01586 -0.00905989 0)
(1.01747 -0.0144447 0)
(1.01956 -0.0205146 0)
(1.02205 -0.0265207 0)
(1.02469 -0.0329665 0)
(1.02727 -0.0397633 0)
(1.0295 -0.0470119 0)
(1.03111 -0.0546759 0)
(1.03177 -0.0626978 0)
(1.03122 -0.0709401 0)
(1.02926 -0.0791909 0)
(1.02578 -0.0871592 0)
(1.02077 -0.0945096 0)
(1.01432 -0.100921 0)
(1.00661 -0.106192 0)
(0.997968 -0.110214 0)
(0.989045 -0.112697 0)
(0.980701 -0.112927 0)
(0.973505 -0.110466 0)
(0.96822 -0.10615 0)
(0.96654 -0.101844 0)
(0.966915 -0.0993766 0)
(0.961546 -0.0983611 0)
(0.948546 -0.0968411 0)
(0.936767 -0.095273 0)
(0.930125 -0.0940174 0)
(0.925621 -0.0924205 0)
(0.922117 -0.0906921 0)
(1.01623 -0.00274291 0)
(1.01723 -0.00934955 0)
(1.01898 -0.0148862 0)
(1.02127 -0.0211111 0)
(1.02403 -0.0272414 0)
(1.02701 -0.0338255 0)
(1.03001 -0.0407883 0)
(1.03275 -0.0482734 0)
(1.03492 -0.0562927 0)
(1.03621 -0.0648451 0)
(1.0363 -0.0738386 0)
(1.03494 -0.0830959 0)
(1.03191 -0.0923461 0)
(1.02708 -0.101261 0)
(1.02041 -0.109481 0)
(1.0121 -0.116644 0)
(1.00261 -0.122346 0)
(0.992519 -0.126265 0)
(0.982089 -0.128893 0)
(0.970979 -0.131534 0)
(0.958605 -0.134489 0)
(0.944238 -0.136208 0)
(0.929196 -0.134782 0)
(0.919549 -0.130505 0)
(0.918751 -0.125929 0)
(0.919494 -0.12153 0)
(0.916652 -0.11676 0)
(0.912995 -0.112584 0)
(0.90976 -0.109015 0)
(1.01742 -0.00282277 0)
(1.01849 -0.00959179 0)
(1.02037 -0.0152522 0)
(1.02284 -0.0215991 0)
(1.02585 -0.0278163 0)
(1.02915 -0.0344928 0)
(1.03255 -0.0415634 0)
(1.03578 -0.0492097 0)
(1.03855 -0.0574884 0)
(1.04053 -0.0664566 0)
(1.04138 -0.0760839 0)
(1.04076 -0.0862572 0)
(1.03837 -0.0967591 0)
(1.03398 -0.107272 0)
(1.02748 -0.117358 0)
(1.01897 -0.12652 0)
(1.00876 -0.134346 0)
(0.997266 -0.140528 0)
(0.985166 -0.14462 0)
(0.973496 -0.145682 0)
(0.963386 -0.143273 0)
(0.956495 -0.138783 0)
(0.95333 -0.135085 0)
(0.947773 -0.133843 0)
(0.933738 -0.132626 0)
(0.917784 -0.130335 0)
(0.907849 -0.128377 0)
(0.901436 -0.12607 0)
(0.896169 -0.123362 0)
(1.01852 -0.00289096 0)
(1.01965 -0.00979442 0)
(1.02165 -0.0155559 0)
(1.02428 -0.0219986 0)
(1.02751 -0.0282739 0)
(1.0311 -0.0350065 0)
(1.03488 -0.0421365 0)
(1.03858 -0.0498763 0)
(1.04195 -0.0583251 0)
(1.04464 -0.0675999 0)
(1.0463 -0.0777437 0)
(1.04653 -0.0887194 0)
(1.04498 -0.100367 0)
(1.04134 -0.112392 0)
(1.03536 -0.124353 0)
(1.02694 -0.135724 0)
(1.01623 -0.146004 0)
(1.00378 -0.154618 0)
(0.990302 -0.161079 0)
(0.975944 -0.166004 0)
(0.960218 -0.170919 0)
(0.942835 -0.175572 0)
(0.923778 -0.177153 0)
(0.906872 -0.17366 0)
(0.898996 -0.167851 0)
(0.897282 -0.162549 0)
(0.892772 -0.156705 0)
(0.886401 -0.151046 0)
(0.88105 -0.146313 0)
(1.01954 -0.00294946 0)
(1.02072 -0.00996438 0)
(1.02282 -0.0158087 0)
(1.0256 -0.022327 0)
(1.02902 -0.0286384 0)
(1.03288 -0.0353994 0)
(1.03699 -0.0425498 0)
(1.04115 -0.0503271 0)
(1.04508 -0.0588699 0)
(1.04847 -0.0683522 0)
(1.05096 -0.0788887 0)
(1.05215 -0.090518 0)
(1.05164 -0.10315 0)
(1.04901 -0.11656 0)
(1.04386 -0.130364 0)
(1.03591 -0.144005 0)
(1.02523 -0.156846 0)
(1.01227 -0.168256 0)
(0.997564 -0.177645 0)
(0.981696 -0.184236 0)
(0.966069 -0.186745 0)
(0.952788 -0.184736 0)
(0.943512 -0.180791 0)
(0.935471 -0.179123 0)
(0.92046 -0.178992 0)
(0.899474 -0.176638 0)
(0.883472 -0.173621 0)
(0.8737 -0.170537 0)
(0.86562 -0.166466 0)
(1.02048 -0.0029999 0)
(1.02171 -0.0101074 0)
(1.0239 -0.0160201 0)
(1.0268 -0.0225981 0)
(1.0304 -0.0289294 0)
(1.03449 -0.0356984 0)
(1.03891 -0.0428395 0)
(1.04347 -0.0506101 0)
(1.04794 -0.0591828 0)
(1.05201 -0.0687799 0)
(1.05535 -0.0795804 0)
(1.05757 -0.0917018 0)
(1.05822 -0.105142 0)
(1.05679 -0.119774 0)
(1.05276 -0.135285 0)
(1.04571 -0.151116 0)
(1.0355 -0.166599 0)
(1.02243 -0.181083 0)
(1.00697 -0.193797 0)
(0.989476 -0.204115 0)
(0.970056 -0.212926 0)
(0.948591 -0.221696 0)
(0.924682 -0.228587 0)
(0.899597 -0.228936 0)
(0.880988 -0.222963 0)
(0.873231 -0.216297 0)
(0.866603 -0.209651 0)
(0.85634 -0.201966 0)
(0.847265 -0.195324 0)
(1.02134 -0.00304358 0)
(1.02261 -0.0102281 0)
(1.02489 -0.0161975 0)
(1.0279 -0.022823 0)
(1.03166 -0.0291625 0)
(1.03595 -0.035925 0)
(1.04064 -0.0430348 0)
(1.04557 -0.0507648 0)
(1.05053 -0.0593133 0)
(1.05526 -0.0689423 0)
(1.05945 -0.0798883 0)
(1.06271 -0.0923507 0)
(1.06456 -0.106422 0)
(1.06445 -0.122073 0)
(1.06179 -0.139084 0)
(1.05598 -0.156971 0)
(1.04668 -0.175091 0)
(1.03404 -0.192771 0)
(1.01844 -0.209192 0)
(1.00002 -0.223291 0)
(0.979613 -0.233692 0)
(0.959576 -0.23849 0)
(0.942162 -0.237448 0)
(0.927802 -0.235447 0)
(0.910593 -0.236964 0)
(0.884635 -0.236927 0)
(0.858764 -0.233067 0)
(0.842087 -0.22899 0)
(0.82943 -0.223447 0)
(1.02214 -0.00308148 0)
(1.02345 -0.01033 0)
(1.02579 -0.0163469 0)
(1.0289 -0.0230099 0)
(1.0328 -0.0293495 0)
(1.03726 -0.0360957 0)
(1.0422 -0.0431585 0)
(1.04746 -0.0508222 0)
(1.05288 -0.0593037 0)
(1.05822 -0.068897 0)
(1.0632 -0.0798893 0)
(1.06747 -0.0925575 0)
(1.07054 -0.107082 0)
(1.07184 -0.12353 0)
(1.07073 -0.141804 0)
(1.06645 -0.161536 0)
(1.05851 -0.182137 0)
(1.04692 -0.202955 0)
(1.03183 -0.223171 0)
(1.01311 -0.241604 0)
(0.990874 -0.257605 0)
(0.965427 -0.272481 0)
(0.936287 -0.287008 0)
(0.903047 -0.296568 0)
(0.870677 -0.295041 0)
(0.850007 -0.287095 0)
(0.838438 -0.27982 0)
(0.823327 -0.270613 0)
(0.807458 -0.260944 0)
(1.02287 -0.00311439 0)
(1.02421 -0.0104161 0)
(1.02662 -0.0164731 0)
(1.02981 -0.0231657 0)
(1.03383 -0.0294997 0)
(1.03845 -0.0362235 0)
(1.0436 -0.0432283 0)
(1.04916 -0.050808 0)
(1.05498 -0.0591909 0)
(1.06088 -0.0686977 0)
(1.0666 -0.0796563 0)
(1.07183 -0.0924094 0)
(1.07611 -0.107221 0)
(1.07887 -0.124249 0)
(1.0794 -0.143529 0)
(1.07688 -0.164831 0)
(1.0707 -0.187668 0)
(1.06066 -0.211468 0)
(1.0467 -0.235506 0)
(1.02841 -0.258642 0)
(1.00586 -0.279416 0)
(0.980514 -0.295487 0)
(0.954613 -0.303611 0)
(0.930167 -0.304768 0)
(0.907336 -0.307754 0)
(0.877483 -0.3135 0)
(0.839246 -0.312217 0)
(0.808516 -0.306867 0)
(0.787716 -0.300439 0)
(1.02354 -0.00314295 0)
(1.0249 -0.0104888 0)
(1.02738 -0.0165797 0)
(1.03063 -0.0232955 0)
(1.03477 -0.0296203 0)
(1.03952 -0.036318 0)
(1.04486 -0.0432582 0)
(1.05068 -0.0507427 0)
(1.05687 -0.0590057 0)
(1.06327 -0.0683881 0)
(1.06967 -0.0792491 0)
(1.07581 -0.0919842 0)
(1.08126 -0.106934 0)
(1.08545 -0.124347 0)
(1.08767 -0.144376 0)
(1.08706 -0.166947 0)
(1.08289 -0.191716 0)
(1.07484 -0.218228 0)
(1.06262 -0.245858 0)
(1.04565 -0.273529 0)
(1.02353 -0.299821 0)
(0.996168 -0.324209 0)
(0.962788 -0.348478 0)
(0.922631 -0.371949 0)
(0.877098 -0.384649 0)
(0.836065 -0.380788 0)
(0.810622 -0.372497 0)
(0.789509 -0.364167 0)
(0.763209 -0.351215 0)
(1.02414 -0.00316773 0)
(1.02554 -0.0105501 0)
(1.02807 -0.01667 0)
(1.03137 -0.0234039 0)
(1.03562 -0.0297172 0)
(1.04048 -0.0363869 0)
(1.04598 -0.043259 0)
(1.05203 -0.0506428 0)
(1.05854 -0.0587724 0)
(1.06539 -0.0680028 0)
(1.07243 -0.0787177 0)
(1.07941 -0.0913535 0)
(1.08597 -0.106321 0)
(1.09154 -0.123947 0)
(1.09543 -0.144491 0)
(1.09676 -0.168033 0)
(1.09479 -0.194392 0)
(1.08906 -0.223252 0)
(1.07913 -0.254118 0)
(1.06417 -0.286155 0)
(1.04348 -0.318176 0)
(1.01698 -0.348272 0)
(0.985676 -0.372513 0)
(0.951737 -0.385887 0)
(0.918122 -0.392108 0)
(0.882887 -0.404871 0)
(0.834597 -0.415769 0)
(0.780988 -0.41216 0)
(0.742521 -0.405247 0)
(1.02469 -0.00318918 0)
(1.02611 -0.0106017 0)
(1.02868 -0.0167465 0)
(1.03204 -0.0234943 0)
(1.03638 -0.0297949 0)
(1.04133 -0.036436 0)
(1.04698 -0.0432393 0)
(1.05323 -0.0505207 0)
(1.06002 -0.0585097 0)
(1.06728 -0.0675699 0)
(1.07489 -0.0781046 0)
(1.08264 -0.0905811 0)
(1.09022 -0.105469 0)
(1.0971 -0.123166 0)
(1.10259 -0.14402 0)
(1.10587 -0.168253 0)
(1.10617 -0.195845 0)
(1.103 -0.226639 0)
(1.09574 -0.260303 0)
(1.08342 -0.296209 0)
(1.06525 -0.333382 0)
(1.04031 -0.370258 0)
(1.0068 -0.406555 0)
(0.963614 -0.445493 0)
(0.910316 -0.48396 0)
(0.847983 -0.5019 0)
(0.793282 -0.495917 0)
(0.75718 -0.489376 0)
(0.719234 -0.477774 0)
(1.02518 -0.00320773 0)
(1.02662 -0.010645 0)
(1.02924 -0.0168112 0)
(1.03264 -0.0235696 0)
(1.03705 -0.0298571 0)
(1.04209 -0.0364701 0)
(1.04787 -0.0432057 0)
(1.05429 -0.0503861 0)
(1.06132 -0.0582323 0)
(1.06894 -0.0671129 0)
(1.07705 -0.0774459 0)
(1.0855 -0.0897215 0)
(1.09401 -0.104455 0)
(1.10212 -0.122109 0)
(1.10914 -0.143102 0)
(1.11431 -0.167777 0)
(1.11687 -0.196268 0)
(1.11635 -0.228578 0)
(1.11204 -0.264551 0)
(1.10282 -0.303751 0)
(1.0878 -0.345629 0)
(1.06581 -0.389222 0)
(1.03524 -0.432067 0)
(0.997332 -0.468329 0)
(0.954392 -0.490517 0)
(0.908702 -0.507976 0)
(0.85427 -0.539381 0)
(0.777394 -0.556084 0)
(0.700926 -0.548205 0)
(1.02563 -0.00322375 0)
(1.02708 -0.0106814 0)
(1.02973 -0.0168659 0)
(1.03318 -0.0236322 0)
(1.03765 -0.0299069 0)
(1.04276 -0.0364925 0)
(1.04865 -0.0431631 0)
(1.05521 -0.0502462 0)
(1.06246 -0.0579515 0)
(1.07039 -0.0666503 0)
(1.07895 -0.0767698 0)
(1.08802 -0.0888177 0)
(1.09738 -0.103343 0)
(1.10662 -0.120862 0)
(1.11508 -0.141857 0)
(1.12203 -0.166768 0)
(1.1268 -0.195865 0)
(1.12889 -0.22929 0)
(1.12764 -0.267067 0)
(1.12184 -0.308971 0)
(1.11053 -0.354699 0)
(1.09265 -0.403722 0)
(1.06562 -0.454627 0)
(1.02594 -0.507998 0)
(0.973131 -0.570944 0)
(0.904526 -0.636918 0)
(0.815515 -0.66499 0)
(0.733657 -0.657924 0)
(0.675199 -0.65409 0)
(1.02602 -0.00323754 0)
(1.02749 -0.0107119 0)
(1.03018 -0.0169122 0)
(1.03365 -0.0236844 0)
(1.03819 -0.0299468 0)
(1.04335 -0.0365064 0)
(1.04934 -0.0431157 0)
(1.05602 -0.0501067 0)
(1.06346 -0.057676 0)
(1.07166 -0.0661959 0)
(1.0806 -0.0760985 0)
(1.09023 -0.0879039 0)
(1.10035 -0.102185 0)
(1.1106 -0.119504 0)
(1.12039 -0.140396 0)
(1.12901 -0.165378 0)
(1.13586 -0.194838 0)
(1.14049 -0.229028 0)
(1.14225 -0.268121 0)
(1.14006 -0.312131 0)
(1.1328 -0.360931 0)
(1.11935 -0.414485 0)
(1.09768 -0.472922 0)
(1.06534 -0.534103 0)
(1.02241 -0.588838 0)
(0.969226 -0.625043 0)
(0.907658 -0.667462 0)
(0.820238 -0.73917 0)
(0.68742 -0.75795 0)
(1.02637 -0.00324938 0)
(1.02786 -0.0107375 0)
(1.03057 -0.0169512 0)
(1.03407 -0.0237278 0)
(1.03866 -0.0299786 0)
(1.04388 -0.0365138 0)
(1.04994 -0.0430662 0)
(1.05673 -0.0499711 0)
(1.06433 -0.0574115 0)
(1.07276 -0.0657594 0)
(1.08205 -0.0754478 0)
(1.09215 -0.0870058 0)
(1.10295 -0.101023 0)
(1.11411 -0.118097 0)
(1.1251 -0.138809 0)
(1.13526 -0.163735 0)
(1.14405 -0.193357 0)
(1.15107 -0.228024 0)
(1.15571 -0.268001 0)
(1.15708 -0.313524 0)
(1.15413 -0.364722 0)
(1.14541 -0.421598 0)
(1.12996 -0.48492 0)
(1.10519 -0.555082 0)
(1.0621 -0.632771 0)
(1.00062 -0.734424 0)
(0.921203 -0.859405 0)
(0.782997 -0.918889 0)
(0.618178 -0.906315 0)
(1.02669 -0.00325953 0)
(1.02818 -0.0107589 0)
(1.03092 -0.0169841 0)
(1.03445 -0.0237638 0)
(1.03908 -0.030004 0)
(1.04434 -0.0365166 0)
(1.05047 -0.0430168 0)
(1.05735 -0.0498423 0)
(1.06509 -0.0571624 0)
(1.07371 -0.0653478 0)
(1.08329 -0.0748298 0)
(1.09383 -0.0861435 0)
(1.10521 -0.0998903 0)
(1.11718 -0.116693 0)
(1.12924 -0.137172 0)
(1.14079 -0.161949 0)
(1.15136 -0.19158 0)
(1.16061 -0.226498 0)
(1.16794 -0.267022 0)
(1.17263 -0.313512 0)
(1.174 -0.366423 0)
(1.17037 -0.425781 0)
(1.16052 -0.492433 0)
(1.14457 -0.570218 0)
(1.11818 -0.659366 0)
(1.07608 -0.741543 0)
(1.01308 -0.79852 0)
(0.931976 -0.907512 0)
(0.76183 -1.07672 0)
(1.02696 -0.00326818 0)
(1.02847 -0.0107768 0)
(1.03122 -0.0170117 0)
(1.03478 -0.0237937 0)
(1.03944 -0.0300242 0)
(1.04474 -0.0365161 0)
(1.05094 -0.0429689 0)
(1.05789 -0.0497219 0)
(1.06574 -0.056931 0)
(1.07454 -0.0649652 0)
(1.08437 -0.074252 0)
(1.09527 -0.0853301 0)
(1.10717 -0.0988088 0)
(1.11985 -0.11533 0)
(1.13286 -0.135542 0)
(1.14566 -0.160106 0)
(1.15782 -0.18963 0)
(1.1691 -0.224618 0)
(1.17893 -0.265434 0)
(1.18664 -0.312461 0)
(1.19201 -0.366394 0)
(1.19359 -0.427563 0)
(1.18951 -0.496332 0)
(1.18231 -0.576828 0)
(1.17098 -0.672971 0)
(1.13312 -0.77836 0)
(1.06922 -0.933541 0)
(0.999069 -1.20695 0)
(0.709548 -1.3075 0)
(0.998143 -0.000405712 0)
(0.998304 -0.000282408 0)
(0.998395 -0.000154657 0)
(0.998414 -2.3315e-05 0)
(0.99835 0.000110612 0)
(0.998185 0.000246163 0)
(0.99789 0.000381914 0)
(0.997431 0.000515765 0)
(0.996765 0.000644792 0)
(0.995851 0.000765144 0)
(0.994656 0.000872087 0)
(0.993163 0.00096029 0)
(0.991385 0.00102441 0)
(0.989373 0.00105998 0)
(0.987223 0.00106441 0)
(0.985073 0.00103808 0)
(0.983094 0.000984947 0)
(0.981469 0.000912744 0)
(0.980365 0.000832307 0)
(0.998577 -0.00375321 0)
(0.998304 -0.00368624 0)
(0.998112 -0.0036223 0)
(0.998002 -0.00356105 0)
(0.997989 -0.00349999 0)
(0.998098 -0.00343657 0)
(0.998369 -0.00336768 0)
(0.998856 -0.00328926 0)
(0.999618 -0.00319616 0)
(1.00072 -0.00308215 0)
(1.00222 -0.00294018 0)
(1.00413 -0.00276299 0)
(1.00644 -0.00254427 0)
(1.00907 -0.00228009 0)
(1.01187 -0.00197063 0)
(1.01463 -0.0016216 0)
(1.0171 -0.00124487 0)
(1.01901 -0.000857917 0)
(1.02015 -0.000481688 0)
(0.993832 -0.00928179 0)
(0.994082 -0.00890848 0)
(0.994227 -0.00852894 0)
(0.994268 -0.00814366 0)
(0.994189 -0.00775477 0)
(0.993966 -0.00736391 0)
(0.993558 -0.00697324 0)
(0.992916 -0.00658592 0)
(0.991982 -0.00620621 0)
(0.990701 -0.00583936 0)
(0.989035 -0.00549124 0)
(0.986975 -0.00516756 0)
(0.984566 -0.0048726 0)
(0.981916 -0.00460759 0)
(0.979205 -0.00436923 0)
(0.976672 -0.00414873 0)
(0.974588 -0.00393193 0)
(0.973204 -0.00370097 0)
(0.972706 -0.00343731 0)
(0.991142 -0.0129041 0)
(0.990714 -0.0126469 0)
(0.99038 -0.0123778 0)
(0.990136 -0.0120986 0)
(0.989995 -0.0118082 0)
(0.989991 -0.011506 0)
(0.990173 -0.0111913 0)
(0.990607 -0.0108629 0)
(0.991366 -0.0105187 0)
(0.992522 -0.010156 0)
(0.994128 -0.00977113 0)
(0.996191 -0.00936055 0)
(0.998655 -0.00892169 0)
(1.00138 -0.00845464 0)
(1.00416 -0.0079638 0)
(1.00669 -0.00745893 0)
(1.00869 -0.006955 0)
(1.00987 -0.00647025 0)
(1.01008 -0.00602256 0)
(0.984407 -0.0249575 0)
(0.984437 -0.0242279 0)
(0.984364 -0.0234964 0)
(0.984196 -0.0227638 0)
(0.983928 -0.0220333 0)
(0.983534 -0.0213073 0)
(0.982976 -0.0205883 0)
(0.982201 -0.0198792 0)
(0.981145 -0.0191838 0)
(0.979747 -0.0185062 0)
(0.977965 -0.0178515 0)
(0.975798 -0.0172244 0)
(0.973311 -0.0166287 0)
(0.970654 -0.0160658 0)
(0.968062 -0.0155326 0)
(0.965831 -0.0150203 0)
(0.964264 -0.0145143 0)
(0.963607 -0.0139955 0)
(0.963978 -0.0134439 0)
(0.978284 -0.0298423 0)
(0.977742 -0.029406 0)
(0.977311 -0.0289475 0)
(0.976986 -0.0284714 0)
(0.976781 -0.0279772 0)
(0.97673 -0.027465 0)
(0.976882 -0.0269352 0)
(0.977304 -0.0263874 0)
(0.97807 -0.02582 0)
(0.97925 -0.0252298 0)
(0.980894 -0.0246112 0)
(0.982998 -0.0239556 0)
(0.985484 -0.0232524 0)
(0.988177 -0.02249 0)
(0.990807 -0.0216588 0)
(0.993041 -0.0207545 0)
(0.994538 -0.0197815 0)
(0.99503 -0.018754 0)
(0.994394 -0.0176942 0)
(0.971219 -0.0421065 0)
(0.970891 -0.0410095 0)
(0.970496 -0.0398969 0)
(0.970044 -0.0387679 0)
(0.969528 -0.0376246 0)
(0.968927 -0.0364667 0)
(0.968201 -0.0352933 0)
(0.967292 -0.0341037 0)
(0.966123 -0.0328976 0)
(0.96461 -0.0316768 0)
(0.962679 -0.0304464 0)
(0.96029 -0.0292164 0)
(0.957475 -0.0280022 0)
(0.954368 -0.0268237 0)
(0.951222 -0.0257021 0)
(0.94839 -0.0246545 0)
(0.946266 -0.0236878 0)
(0.945188 -0.0227939 0)
(0.94534 -0.0219493 0)
(0.962267 -0.0474383 0)
(0.96138 -0.0467406 0)
(0.960593 -0.0460058 0)
(0.959894 -0.0452397 0)
(0.959289 -0.0444409 0)
(0.958799 -0.0436102 0)
(0.958465 -0.0427491 0)
(0.958347 -0.0418595 0)
(0.958527 -0.0409431 0)
(0.9591 -0.0400002 0)
(0.960159 -0.0390267 0)
(0.961766 -0.0380126 0)
(0.963914 -0.0369389 0)
(0.966487 -0.0357777 0)
(0.969232 -0.0344952 0)
(0.971771 -0.0330594 0)
(0.973656 -0.0314505 0)
(0.974474 -0.0296727 0)
(0.973964 -0.0277597 0)
(0.954113 -0.0585719 0)
(0.953253 -0.0569663 0)
(0.952353 -0.0553212 0)
(0.951426 -0.0536373 0)
(0.950473 -0.0519181 0)
(0.949483 -0.0501644 0)
(0.948429 -0.0483758 0)
(0.947262 -0.0465512 0)
(0.945905 -0.0446894 0)
(0.944255 -0.0427902 0)
(0.942188 -0.0408572 0)
(0.939584 -0.0389013 0)
(0.936369 -0.0369448 0)
(0.932571 -0.0350236 0)
(0.928383 -0.0331859 0)
(0.924189 -0.0314843 0)
(0.920542 -0.0299616 0)
(0.918042 -0.0286344 0)
(0.917167 -0.0274798 0)
(0.942689 -0.0654481 0)
(0.941146 -0.0643329 0)
(0.939705 -0.0631547 0)
(0.938351 -0.0619229 0)
(0.937081 -0.0606393 0)
(0.935909 -0.0593079 0)
(0.934861 -0.0579344 0)
(0.933984 -0.056526 0)
(0.933354 -0.0550916 0)
(0.933076 -0.0536402 0)
(0.933286 -0.052179 0)
(0.934133 -0.0507089 0)
(0.935736 -0.0492183 0)
(0.938124 -0.0476765 0)
(0.941162 -0.0460303 0)
(0.944492 -0.0442077 0)
(0.947539 -0.0421338 0)
(0.949613 -0.0397566 0)
(0.950097 -0.0370757 0)
(0.932707 -0.078616 0)
(0.931065 -0.0763896 0)
(0.929429 -0.0741026 0)
(0.927822 -0.0717589 0)
(0.926256 -0.0693624 0)
(0.924733 -0.0669145 0)
(0.923245 -0.0644148 0)
(0.921766 -0.0618615 0)
(0.920243 -0.0592506 0)
(0.918583 -0.0565759 0)
(0.916643 -0.0538303 0)
(0.914237 -0.0510095 0)
(0.911152 -0.0481188 0)
(0.907217 -0.0451831 0)
(0.902395 -0.0422556 0)
(0.89691 -0.0394201 0)
(0.891323 -0.0367787 0)
(0.886507 -0.0344233 0)
(0.883435 -0.0323954 0)
(0.919368 -0.0889531 0)
(0.916956 -0.0871685 0)
(0.914674 -0.0852782 0)
(0.912507 -0.0832961 0)
(0.910449 -0.0812306 0)
(0.908505 -0.0790912 0)
(0.906685 -0.0768888 0)
(0.905013 -0.0746354 0)
(0.903527 -0.0723444 0)
(0.902299 -0.0700314 0)
(0.901443 -0.0677147 0)
(0.901126 -0.0654131 0)
(0.901565 -0.0631404 0)
(0.902977 -0.0608945 0)
(0.905487 -0.0586421 0)
(0.908991 -0.056304 0)
(0.913024 -0.0537547 0)
(0.916729 -0.0508471 0)
(0.919025 -0.0474698 0)
(0.906816 -0.105872 0)
(0.904097 -0.102893 0)
(0.901452 -0.0998136 0)
(0.898907 -0.0966443 0)
(0.896481 -0.0933857 0)
(0.894186 -0.0900362 0)
(0.892024 -0.086594 0)
(0.889986 -0.0830569 0)
(0.88805 -0.079422 0)
(0.886161 -0.0756846 0)
(0.884224 -0.0718362 0)
(0.882072 -0.0678643 0)
(0.879459 -0.0637552 0)
(0.876064 -0.0595032 0)
(0.871564 -0.0551282 0)
(0.865786 -0.0506983 0)
(0.858933 -0.0463452 0)
(0.851796 -0.0422501 0)
(0.845746 -0.0385883 0)
(0.892015 -0.120675 0)
(0.888357 -0.117879 0)
(0.884884 -0.114881 0)
(0.88159 -0.111707 0)
(0.878467 -0.108378 0)
(0.875517 -0.10492 0)
(0.872748 -0.101356 0)
(0.870166 -0.0977114 0)
(0.867786 -0.0940096 0)
(0.865636 -0.0902744 0)
(0.863767 -0.0865318 0)
(0.862284 -0.0828115 0)
(0.861365 -0.0791479 0)
(0.861284 -0.0755763 0)
(0.862381 -0.0721182 0)
(0.864941 -0.0687533 0)
(0.868956 -0.0653826 0)
(0.873839 -0.0618089 0)
(0.878294 -0.0577748 0)
(0.876291 -0.142014 0)
(0.871917 -0.137879 0)
(0.86773 -0.133569 0)
(0.863742 -0.129085 0)
(0.859995 -0.124438 0)
(0.856505 -0.119622 0)
(0.853282 -0.114641 0)
(0.850327 -0.109498 0)
(0.847631 -0.104198 0)
(0.845169 -0.0987478 0)
(0.842891 -0.0931518 0)
(0.840703 -0.0874124 0)
(0.838436 -0.0815258 0)
(0.835808 -0.0754822 0)
(0.832396 -0.0692738 0)
(0.82769 -0.0629207 0)
(0.8213 -0.0565158 0)
(0.813364 -0.0502638 0)
(0.805034 -0.0444737 0)
(0.859086 -0.16231 0)
(0.853418 -0.157939 0)
(0.848024 -0.15313 0)
(0.842963 -0.147987 0)
(0.838226 -0.142535 0)
(0.833823 -0.136834 0)
(0.829772 -0.130938 0)
(0.826078 -0.124897 0)
(0.822752 -0.118768 0)
(0.819802 -0.112606 0)
(0.817248 -0.106469 0)
(0.815126 -0.100415 0)
(0.813523 -0.0945061 0)
(0.812617 -0.08881 0)
(0.812724 -0.0833956 0)
(0.814312 -0.0783192 0)
(0.817868 -0.0735752 0)
(0.823501 -0.0690266 0)
(0.830343 -0.064328 0)
(0.839597 -0.189251 0)
(0.832446 -0.183138 0)
(0.825714 -0.176699 0)
(0.819376 -0.169857 0)
(0.813504 -0.162671 0)
(0.808159 -0.15516 0)
(0.803358 -0.147354 0)
(0.799132 -0.139299 0)
(0.795484 -0.131035 0)
(0.792413 -0.122605 0)
(0.789888 -0.114048 0)
(0.787852 -0.105397 0)
(0.786196 -0.0966762 0)
(0.784726 -0.0879001 0)
(0.783094 -0.0790717 0)
(0.780729 -0.0701892 0)
(0.776835 -0.0612991 0)
(0.770658 -0.052549 0)
(0.762233 -0.0443069 0)
(0.818576 -0.216989 0)
(0.809366 -0.210201 0)
(0.800624 -0.202451 0)
(0.792503 -0.194027 0)
(0.785085 -0.184984 0)
(0.778376 -0.175417 0)
(0.772457 -0.16545 0)
(0.767342 -0.155178 0)
(0.763056 -0.144726 0)
(0.759597 -0.134213 0)
(0.756961 -0.123773 0)
(0.755137 -0.113543 0)
(0.754135 -0.10367 0)
(0.754015 -0.094307 0)
(0.754949 -0.0856085 0)
(0.75731 -0.0777355 0)
(0.761747 -0.0707916 0)
(0.76901 -0.0648163 0)
(0.779396 -0.0595366 0)
(0.794713 -0.252395 0)
(0.782737 -0.243148 0)
(0.771476 -0.233116 0)
(0.761091 -0.222191 0)
(0.75159 -0.210418 0)
(0.743197 -0.197961 0)
(0.735934 -0.184895 0)
(0.729898 -0.171388 0)
(0.725115 -0.157575 0)
(0.721614 -0.14361 0)
(0.719379 -0.129633 0)
(0.718373 -0.115775 0)
(0.718508 -0.10214 0)
(0.719628 -0.0888087 0)
(0.721446 -0.0758284 0)
(0.723445 -0.0631871 0)
(0.724698 -0.0509423 0)
(0.723917 -0.0391349 0)
(0.719291 -0.0280394 0)
(0.769415 -0.290949 0)
(0.753593 -0.280465 0)
(0.738926 -0.268225 0)
(0.725249 -0.254383 0)
(0.713075 -0.239351 0)
(0.702359 -0.223166 0)
(0.693329 -0.206143 0)
(0.686031 -0.188479 0)
(0.680552 -0.170427 0)
(0.67689 -0.15224 0)
(0.675045 -0.134185 0)
(0.674965 -0.116539 0)
(0.676582 -0.0995984 0)
(0.679826 -0.0836832 0)
(0.684686 -0.0691226 0)
(0.6913 -0.0563381 0)
(0.700256 -0.0455671 0)
(0.712236 -0.0372034 0)
(0.729188 -0.0314097 0)
(0.740684 -0.339014 0)
(0.720553 -0.325646 0)
(0.701038 -0.309785 0)
(0.683511 -0.292279 0)
(0.667678 -0.272762 0)
(0.654077 -0.251819 0)
(0.642767 -0.229648 0)
(0.633951 -0.206599 0)
(0.627652 -0.183019 0)
(0.623957 -0.159239 0)
(0.622834 -0.135598 0)
(0.624259 -0.112424 0)
(0.628143 -0.0900236 0)
(0.634343 -0.0686582 0)
(0.642596 -0.0485693 0)
(0.652476 -0.0297127 0)
(0.662735 -0.0123447 0)
(0.672502 0.00369395 0)
(0.677738 0.0185037 0)
(0.712468 -0.393734 0)
(0.684414 -0.377356 0)
(0.659374 -0.358512 0)
(0.636121 -0.335988 0)
(0.615818 -0.311141 0)
(0.59848 -0.284162 0)
(0.584455 -0.255544 0)
(0.573746 -0.225831 0)
(0.566546 -0.195421 0)
(0.562785 -0.164779 0)
(0.562513 -0.134338 0)
(0.565667 -0.104543 0)
(0.572183 -0.0758756 0)
(0.581941 -0.0488971 0)
(0.594821 -0.0241356 0)
(0.610529 -0.00267765 0)
(0.630112 0.0151518 0)
(0.652661 0.0279646 0)
(0.682422 0.0343108 0)
(0.678444 -0.459076 0)
(0.643995 -0.440357 0)
(0.610696 -0.415347 0)
(0.581097 -0.386835 0)
(0.555347 -0.35495 0)
(0.533922 -0.320281 0)
(0.516757 -0.283883 0)
(0.504194 -0.246119 0)