/*--------------------------------*- C++ -*----------------------------------*\
  =========                 |
  \\      /  F ield         | OpenFOAM: The Open Source CFD Toolbox
   \\    /   O peration     | Website:  https://openfoam.org
    \\  /    A nd           | Version:  10
     \\/     M anipulation  |
\*---------------------------------------------------------------------------*/
FoamFile
{
    format      ascii;
    class       volVectorField;
    location    "0";
    object      U;
}
// * * * * * * * * * * * * * * * * * * * * * * * * * * * * * * * * * * * * * //

dimensions      [0 1 -1 0 0 0 0];

internalField   nonuniform List<vector> 
18483
(
(0.999999 -0.000176466 0)
(0.999999 -0.000626887 0)
(0.999999 -0.00099102 0)
(0.999998 -0.00137752 0)
(0.999997 -0.00173729 0)
(0.999996 -0.00207684 0)
(0.999995 -0.00238167 0)
(0.999993 -0.00264246 0)
(0.99999 -0.00285178 0)
(0.999987 -0.00300526 0)
(0.999984 -0.00310147 0)
(0.999986 -0.00314613 0)
(0.999992 -0.00314679 0)
(0.999999 -0.00314644 0)
(1 -0.00320139 0)
(0.999993 -0.00333745 0)
(0.999924 -0.00353189 0)
(0.999608 -0.00369858 0)
(0.998558 -0.00375503 0)
(0.996215 -0.003659 0)
(0.992956 -0.00342684 0)
(0.990565 -0.00316519 0)
(0.990496 -0.00292722 0)
(0.992267 -0.00267694 0)
(0.994501 -0.00241965 0)
(0.996355 -0.0021819 0)
(0.997648 -0.00197713 0)
(0.998479 -0.00180814 0)
(0.998995 -0.00167162 0)
(1.00054 -0.000538737 0)
(1.00056 -0.00190132 0)
(1.0006 -0.00300602 0)
(1.00065 -0.00418836 0)
(1.00068 -0.0052909 0)
(1.0007 -0.00633931 0)
(1.00069 -0.00728735 0)
(1.00065 -0.00810441 0)
(1.00057 -0.00875865 0)
(1.00045 -0.00923019 0)
(1.0003 -0.00951583 0)
(1.00014 -0.00965019 0)
(0.999985 -0.00968144 0)
(0.999879 -0.00955464 0)
(0.999834 -0.00917931 0)
(0.999815 -0.0085002 0)
(0.999757 -0.00754118 0)
(0.999746 -0.00648901 0)
(1.00023 -0.00554196 0)
(1.00194 -0.00486443 0)
(1.00482 -0.0045699 0)
(1.00712 -0.0044951 0)
(1.00701 -0.00441857 0)
(1.00486 -0.00434484 0)
(1.0023 -0.00427891 0)
(1.00033 -0.00418875 0)
(0.999055 -0.00406641 0)
(0.998299 -0.00391762 0)
(0.99786 -0.00375338 0)
(1.00165 -0.000902943 0)
(1.00171 -0.00316746 0)
(1.00184 -0.00500786 0)
(1.00196 -0.0069898 0)
(1.00208 -0.00883997 0)
(1.00213 -0.0106133 0)
(1.00211 -0.0122307 0)
(1.00198 -0.0136459 0)
(1.00173 -0.0148102 0)
(1.00136 -0.0157 0)
(1.00088 -0.0163043 0)
(1.00035 -0.0166118 0)
(0.999845 -0.0166287 0)
(0.99939 -0.0163799 0)
(0.998919 -0.0159867 0)
(0.998344 -0.0157149 0)
(0.997639 -0.0156991 0)
(0.996739 -0.0157915 0)
(0.995345 -0.0157612 0)
(0.993004 -0.0154032 0)
(0.989862 -0.0145767 0)
(0.98731 -0.0134338 0)
(0.986871 -0.0123321 0)
(0.988312 -0.01137 0)
(0.99019 -0.010497 0)
(0.991606 -0.00973048 0)
(0.992453 -0.00907908 0)
(0.992897 -0.00853435 0)
(0.993103 -0.00808354 0)
(1.00306 -0.00124962 0)
(1.00317 -0.00436302 0)
(1.00341 -0.00690238 0)
(1.00365 -0.00965315 0)
(1.00386 -0.0122304 0)
(1.00398 -0.0147272 0)
(1.00394 -0.0170359 0)
(1.00372 -0.0191011 0)
(1.00328 -0.0208515 0)
(1.00265 -0.0222342 0)
(1.00185 -0.0232002 0)
(1.00095 -0.0237171 0)
(0.99998 -0.023835 0)
(0.998963 -0.0236838 0)
(0.997921 -0.0233675 0)
(0.996931 -0.0227431 0)
(0.996073 -0.0215603 0)
(0.995368 -0.0199096 0)
(0.995029 -0.0181909 0)
(0.995654 -0.0167779 0)
(0.997526 -0.0158863 0)
(0.999415 -0.015455 0)
(0.999405 -0.0151279 0)
(0.99733 -0.0147444 0)
(0.994706 -0.0143814 0)
(0.992646 -0.01404 0)
(0.991311 -0.0137001 0)
(0.990499 -0.0133618 0)
(0.990007 -0.0130303 0)
(1.00457 -0.00156079 0)
(1.00476 -0.0054311 0)
(1.00512 -0.00860226 0)
(1.00549 -0.012058 0)
(1.00584 -0.0153158 0)
(1.00605 -0.0185107 0)
(1.00605 -0.021508 0)
(1.00578 -0.0242415 0)
(1.00521 -0.0266085 0)
(1.00434 -0.0285297 0)
(1.00317 -0.0299549 0)
(1.00175 -0.0308827 0)
(1.00013 -0.0313692 0)
(0.998402 -0.0314399 0)
(0.996693 -0.0310653 0)
(0.995049 -0.0303248 0)
(0.99338 -0.0295302 0)
(0.991626 -0.0289366 0)
(0.989723 -0.0284223 0)
(0.987388 -0.0276766 0)
(0.98435 -0.0264864 0)
(0.981271 -0.0248627 0)
(0.979733 -0.0231688 0)
(0.980268 -0.0216728 0)
(0.98165 -0.0202909 0)
(0.982732 -0.0190089 0)
(0.983298 -0.0178677 0)
(0.98351 -0.0168734 0)
(0.983527 -0.0160197 0)
(1.00616 -0.00182922 0)
(1.00643 -0.00634862 0)
(1.00693 -0.0100711 0)
(1.00746 -0.0141528 0)
(1.00798 -0.0180302 0)
(1.00834 -0.0218811 0)
(1.00843 -0.0255475 0)
(1.00817 -0.0289604 0)
(1.00748 -0.0320024 0)
(1.00634 -0.0345903 0)
(1.00475 -0.036672 0)
(1.00278 -0.038212 0)
(1.00057 -0.039171 0)
(0.998249 -0.0395183 0)
(0.995875 -0.0393105 0)
(0.993464 -0.038687 0)
(0.991095 -0.0376359 0)
(0.988936 -0.0359921 0)
(0.987216 -0.0338201 0)
(0.986378 -0.0315199 0)
(0.986918 -0.0295297 0)
(0.988253 -0.0280865 0)
(0.988446 -0.0269673 0)
(0.986441 -0.0258684 0)
(0.983413 -0.0248843 0)
(0.980839 -0.0240554 0)
(0.979062 -0.0232996 0)
(0.977866 -0.0225861 0)
(0.977028 -0.0219084 0)
(1.00782 -0.00205567 0)
(1.00818 -0.00711884 0)
(1.00883 -0.0113126 0)
(1.00956 -0.0159403 0)
(1.01029 -0.0203727 0)
(1.01083 -0.0248328 0)
(1.01106 -0.029148 0)
(1.01086 -0.0332576 0)
(1.01011 -0.0370363 0)
(1.00879 -0.0403806 0)
(1.00693 -0.0431869 0)
(1.00461 -0.0453584 0)
(1.00196 -0.046834 0)
(0.99905 -0.0476289 0)
(0.995922 -0.0478058 0)
(0.992667 -0.047441 0)
(0.989371 -0.0467047 0)
(0.986024 -0.0458737 0)
(0.982575 -0.0450911 0)
(0.97889 -0.0441578 0)
(0.974702 -0.0427381 0)
(0.970259 -0.0406989 0)
(0.96709 -0.0383656 0)
(0.966502 -0.0361854 0)
(0.967523 -0.0341323 0)
(0.968426 -0.0321301 0)
(0.968704 -0.0302893 0)
(0.968572 -0.0286593 0)
(0.96825 -0.0272444 0)
(1.00951 -0.0022445 0)
(1.00998 -0.00775757 0)
(1.01079 -0.0123499 0)
(1.01173 -0.0174487 0)
(1.01269 -0.0223731 0)
(1.01347 -0.0273928 0)
(1.0139 -0.0323266 0)
(1.01383 -0.0371231 0)
(1.01315 -0.0416417 0)
(1.0118 -0.0457539 0)
(1.00978 -0.0493247 0)
(1.00712 -0.0522514 0)
(1.0039 -0.0544853 0)
(1.00021 -0.0560186 0)
(0.996189 -0.0568454 0)
(0.991969 -0.0569958 0)
(0.987656 -0.0565273 0)
(0.983349 -0.0553112 0)
(0.979275 -0.0531875 0)
(0.976047 -0.0504103 0)
(0.974555 -0.0475987 0)
(0.974817 -0.0453064 0)
(0.974878 -0.0434973 0)
(0.972587 -0.0417461 0)
(0.968516 -0.0400954 0)
(0.964778 -0.0387173 0)
(0.962125 -0.0374884 0)
(0.960256 -0.0363321 0)
(0.958869 -0.0352429 0)
(1.01118 -0.00240093 0)
(1.01176 -0.00828354 0)
(1.01274 -0.0132102 0)
(1.01391 -0.0187118 0)
(1.01513 -0.0240669 0)
(1.01617 -0.0295909 0)
(1.01686 -0.0350966 0)
(1.017 -0.0405437 0)
(1.01647 -0.0457871 0)
(1.01515 -0.0507005 0)
(1.01297 -0.0551524 0)
(1.00996 -0.0590266 0)
(1.00619 -0.0622134 0)
(1.00185 -0.0646161 0)
(0.997097 -0.0661742 0)
(0.992063 -0.0668672 0)
(0.986818 -0.0667787 0)
(0.981352 -0.0661867 0)
(0.975671 -0.0654661 0)
(0.969913 -0.0647364 0)
(0.963895 -0.0636751 0)
(0.957385 -0.0618389 0)
(0.951693 -0.059291 0)
(0.949108 -0.0566531 0)
(0.949379 -0.0541119 0)
(0.94997 -0.0514879 0)
(0.949754 -0.0489656 0)
(0.949072 -0.0467019 0)
(0.948252 -0.0447154 0)
(1.01278 -0.00252974 0)
(1.01347 -0.0087136 0)
(1.01463 -0.0139183 0)
(1.01603 -0.0197605 0)
(1.01753 -0.0254869 0)
(1.01886 -0.0314567 0)
(1.01985 -0.0374809 0)
(1.02026 -0.0435386 0)
(1.01993 -0.0494956 0)
(1.01871 -0.0552393 0)
(1.01651 -0.0606295 0)
(1.01336 -0.0655056 0)
(1.00933 -0.0696911 0)
(1.00455 -0.0730435 0)
(0.999151 -0.0754912 0)
(0.993219 -0.0769939 0)
(0.986827 -0.0775672 0)
(0.980102 -0.0772349 0)
(0.973454 -0.0758608 0)
(0.967651 -0.073424 0)
(0.963664 -0.0704125 0)
(0.962039 -0.0675967 0)
(0.96127 -0.0653459 0)
(0.958204 -0.0632077 0)
(0.952309 -0.06099 0)
(0.946493 -0.0590792 0)
(0.942399 -0.0574056 0)
(0.939525 -0.0557894 0)
(0.93735 -0.054246 0)
(1.01431 -0.00263486 0)
(1.0151 -0.00906139 0)
(1.01644 -0.0144946 0)
(1.01807 -0.0206209 0)
(1.01985 -0.0266626 0)
(1.0215 -0.0330202 0)
(1.02281 -0.0395082 0)
(1.02354 -0.0461279 0)
(1.0235 -0.0527576 0)
(1.02252 -0.0592922 0)
(1.02053 -0.0655826 0)
(1.01746 -0.0714588 0)
(1.01332 -0.0767423 0)
(1.00815 -0.0812708 0)
(1.00204 -0.0849173 0)
(0.995166 -0.0875635 0)
(0.98767 -0.0891307 0)
(0.979756 -0.0897266 0)
(0.971707 -0.0897994 0)
(0.963712 -0.0898399 0)
(0.955454 -0.0897012 0)
(0.946225 -0.0886278 0)
(0.936924 -0.0862155 0)
(0.930906 -0.0831713 0)
(0.92952 -0.0801659 0)
(0.929498 -0.0769554 0)
(0.928398 -0.0736677 0)
(0.926713 -0.0706738 0)
(0.925016 -0.0680147 0)
(1.01573 -0.00271947 0)
(1.01663 -0.00933809 0)
(1.01813 -0.0149561 0)
(1.02 -0.0213159 0)
(1.02206 -0.0276205 0)
(1.02403 -0.0343102 0)
(1.02569 -0.0412033 0)
(1.02679 -0.0483207 0)
(1.02713 -0.0555506 0)
(1.02652 -0.0628047 0)
(1.02483 -0.069955 0)
(1.02194 -0.0768612 0)
(1.01777 -0.0833552 0)
(1.01233 -0.0892256 0)
(1.00574 -0.0942458 0)
(0.99815 -0.0982072 0)
(0.989751 -0.100981 0)
(0.980791 -0.102557 0)
(0.971715 -0.102867 0)
(0.963181 -0.101668 0)
(0.956017 -0.0990416 0)
(0.951285 -0.0958667 0)
(0.948641 -0.0932173 0)
(0.944461 -0.0909488 0)
(0.936223 -0.0883474 0)
(0.927178 -0.0858674 0)
(0.920756 -0.0837466 0)
(0.916342 -0.0816082 0)
(0.91292 -0.0794818 0)
(1.01705 -0.00278637 0)
(1.01805 -0.00955348 0)
(1.01971 -0.015318 0)
(1.0218 -0.0218662 0)
(1.02414 -0.028386 0)
(1.02645 -0.035354 0)
(1.02847 -0.0425922 0)
(1.02997 -0.0501379 0)
(1.03072 -0.0578941 0)
(1.03052 -0.0658027 0)
(1.02919 -0.0737721 0)
(1.02658 -0.0816907 0)
(1.02261 -0.0893911 0)
(1.01722 -0.0966338 0)
(1.01045 -0.103152 0)
(1.00235 -0.108703 0)
(0.993122 -0.113126 0)
(0.983098 -0.116379 0)
(0.972667 -0.118609 0)
(0.961988 -0.120297 0)
(0.950763 -0.121724 0)
(0.938215 -0.122193 0)
(0.924526 -0.120604 0)
(0.913454 -0.11724 0)
(0.908854 -0.113573 0)
(0.907768 -0.109742 0)
(0.905398 -0.105499 0)
(0.902033 -0.10153 0)
(0.898887 -0.0980119 0)
(1.01826 -0.00283819 0)
(1.01935 -0.00971658 0)
(1.02117 -0.0155945 0)
(1.02348 -0.0222918 0)
(1.02609 -0.0289838 0)
(1.02872 -0.0361809 0)
(1.03111 -0.0437085 0)
(1.033 -0.0516191 0)
(1.03418 -0.0598337 0)
(1.03442 -0.0683232 0)
(1.03356 -0.0770263 0)
(1.03143 -0.0858588 0)
(1.02791 -0.0946851 0)
(1.02286 -0.103303 0)
(1.01614 -0.111459 0)
(1.00777 -0.118868 0)
(0.997991 -0.125254 0)
(0.987196 -0.130391 0)
(0.975779 -0.133972 0)
(0.964123 -0.135463 0)
(0.952979 -0.134438 0)
(0.943794 -0.131512 0)
(0.93775 -0.128486 0)
(0.932013 -0.126389 0)
(0.921453 -0.124026 0)
(0.907921 -0.12109 0)
(0.897671 -0.118522 0)
(0.890913 -0.115875 0)
(0.885572 -0.112996 0)
(1.01937 -0.00287738 0)
(1.02054 -0.00983578 0)
(1.02251 -0.015799 0)
(1.02502 -0.0226116 0)
(1.0279 -0.0294381 0)
(1.03084 -0.036821 0)
(1.03359 -0.0445887 0)
(1.03588 -0.0528062 0)
(1.03749 -0.0614079 0)
(1.03823 -0.0703855 0)
(1.03794 -0.0797044 0)
(1.03643 -0.0893275 0)
(1.03352 -0.0991879 0)
(1.02897 -0.10915 0)
(1.02259 -0.118981 0)
(1.01434 -0.128354 0)
(1.00439 -0.136918 0)
(0.99305 -0.14437 0)
(0.980504 -0.150459 0)
(0.96677 -0.155284 0)
(0.951804 -0.159455 0)
(0.935289 -0.162885 0)
(0.916786 -0.163896 0)
(0.899036 -0.161249 0)
(0.888455 -0.156803 0)
(0.885038 -0.152288 0)
(0.881151 -0.147013 0)
(0.875216 -0.141644 0)
(0.869786 -0.136947 0)
(1.02038 -0.00290624 0)
(1.02163 -0.00991886 0)
(1.02374 -0.0159438 0)
(1.02644 -0.0228432 0)
(1.02957 -0.0297721 0)
(1.03281 -0.0373038 0)
(1.0359 -0.0452676 0)
(1.03858 -0.0537366 0)
(1.04064 -0.0626531 0)
(1.0419 -0.0720248 0)
(1.0422 -0.0818482 0)
(1.04135 -0.092144 0)
(1.03913 -0.102919 0)
(1.03529 -0.114107 0)
(1.02958 -0.125526 0)
(1.02184 -0.136881 0)
(1.01212 -0.147811 0)
(1.00059 -0.157916 0)
(0.987366 -0.166628 0)
(0.972612 -0.173072 0)
(0.95709 -0.176137 0)
(0.942411 -0.175433 0)
(0.930858 -0.17273 0)
(0.922133 -0.171041 0)
(0.909627 -0.170029 0)
(0.890751 -0.167379 0)
(0.874029 -0.164317 0)
(0.86335 -0.161288 0)
(0.855029 -0.157466 0)
(1.0213 -0.00292678 0)
(1.02262 -0.00997279 0)
(1.02486 -0.0160401 0)
(1.02775 -0.0230027 0)
(1.03111 -0.0300073 0)
(1.03463 -0.0376559 0)
(1.03804 -0.0457768 0)
(1.04109 -0.0544471 0)
(1.04359 -0.0636152 0)
(1.04535 -0.0733016 0)
(1.04622 -0.083531 0)
(1.04604 -0.0943734 0)
(1.04462 -0.105901 0)
(1.04168 -0.11813 0)
(1.03692 -0.130981 0)
(1.03006 -0.144245 0)
(1.02101 -0.157568 0)
(1.00979 -0.170455 0)
(0.996276 -0.182252 0)
(0.980213 -0.192396 0)
(0.9616 -0.201208 0)
(0.940641 -0.209503 0)
(0.917065 -0.216009 0)
(0.891656 -0.217174 0)
(0.871283 -0.212969 0)
(0.861933 -0.207654 0)
(0.855981 -0.201734 0)
(0.846441 -0.19457 0)
(0.837132 -0.188115 0)
(1.02215 -0.00294074 0)
(1.02353 -0.0100037 0)
(1.02589 -0.016098 0)
(1.02894 -0.0231045 0)
(1.03252 -0.0301625 0)
(1.0363 -0.0379015 0)
(1.04002 -0.046146 0)
(1.04342 -0.0549761 0)
(1.04632 -0.0643444 0)
(1.04854 -0.0742783 0)
(1.04996 -0.0848194 0)
(1.05048 -0.096073 0)
(1.04993 -0.108175 0)
(1.04804 -0.121243 0)
(1.04443 -0.135323 0)
(1.03876 -0.150317 0)
(1.03082 -0.165928 0)
(1.02041 -0.181674 0)
(1.00714 -0.196881 0)
(0.990653 -0.21055 0)
(0.971432 -0.22111 0)
(0.951221 -0.226668 0)
(0.932552 -0.227071 0)
(0.917849 -0.22618 0)
(0.902866 -0.227661 0)
(0.879081 -0.227785 0)
(0.85231 -0.224689 0)
(0.834015 -0.221385 0)
(0.820905 -0.216712 0)
(1.02291 -0.00294956 0)
(1.02436 -0.0100168 0)
(1.02683 -0.016126 0)
(1.03003 -0.0231606 0)
(1.03381 -0.0302542 0)
(1.03784 -0.0380619 0)
(1.04184 -0.0464021 0)
(1.04557 -0.0553584 0)
(1.04883 -0.0648841 0)
(1.05149 -0.0750053 0)
(1.05346 -0.0857691 0)
(1.05467 -0.0973085 0)
(1.055 -0.109821 0)
(1.05419 -0.123526 0)
(1.05187 -0.138591 0)
(1.04765 -0.155055 0)
(1.04119 -0.172741 0)
(1.03211 -0.191231 0)
(1.01976 -0.209848 0)
(1.00346 -0.227603 0)
(0.982881 -0.243727 0)
(0.958224 -0.258992 0)
(0.929712 -0.274054 0)
(0.897059 -0.284889 0)
(0.86383 -0.285665 0)
(0.841504 -0.279959 0)
(0.830502 -0.273992 0)
(0.816702 -0.265724 0)
(0.800577 -0.256625 0)
(1.02361 -0.0029544 0)
(1.02511 -0.0100163 0)
(1.02768 -0.0161313 0)
(1.03102 -0.0231814 0)
(1.035 -0.0302965 0)
(1.03924 -0.0381554 0)
(1.0435 -0.0465683 0)
(1.04754 -0.0556229 0)
(1.05115 -0.0652695 0)
(1.05422 -0.0755261 0)
(1.05669 -0.0864391 0)
(1.05856 -0.0981616 0)
(1.05972 -0.110942 0)
(1.05999 -0.125085 0)
(1.05902 -0.140877 0)
(1.05642 -0.158507 0)
(1.05177 -0.177961 0)
(1.04449 -0.19895 0)
(1.03369 -0.220922 0)
(1.01837 -0.243013 0)
(0.998125 -0.263727 0)
(0.974057 -0.280481 0)
(0.948616 -0.290092 0)
(0.924895 -0.293163 0)
(0.904387 -0.29735 0)
(0.877382 -0.304204 0)
(0.838686 -0.304828 0)
(0.805339 -0.301332 0)
(0.783559 -0.296676 0)
(1.02425 -0.00295622 0)
(1.0258 -0.0100059 0)
(1.02846 -0.0161197 0)
(1.03192 -0.0231754 0)
(1.03608 -0.0303012 0)
(1.04052 -0.038197 0)
(1.04503 -0.0466636 0)
(1.04934 -0.0557935 0)
(1.05327 -0.0655309 0)
(1.05672 -0.0758823 0)
(1.05965 -0.0868887 0)
(1.0621 -0.0987131 0)
(1.06404 -0.111637 0)
(1.06535 -0.126035 0)
(1.06575 -0.142302 0)
(1.06486 -0.160779 0)
(1.06223 -0.181639 0)
(1.05715 -0.204771 0)
(1.04852 -0.229784 0)
(1.03509 -0.255943 0)
(1.01594 -0.281947 0)
(0.990651 -0.307022 0)
(0.959081 -0.3328 0)
(0.920925 -0.358831 0)
(0.875893 -0.375252 0)
(0.833008 -0.374945 0)
(0.807146 -0.368863 0)
(0.788136 -0.362173 0)
(0.762019 -0.35046 0)
(1.02482 -0.00295583 0)
(1.02641 -0.0099884 0)
(1.02916 -0.0160962 0)
(1.03273 -0.0231499 0)
(1.03705 -0.0302779 0)
(1.04168 -0.0381994 0)
(1.04642 -0.0467042 0)
(1.05099 -0.055891 0)
(1.05521 -0.0656958 0)
(1.05899 -0.076112 0)
(1.06233 -0.0871699 0)
(1.0653 -0.0990307 0)
(1.06796 -0.111994 0)
(1.07026 -0.126488 0)
(1.072 -0.143008 0)
(1.07284 -0.162028 0)
(1.07233 -0.183909 0)
(1.06972 -0.20876 0)
(1.06373 -0.236384 0)
(1.05288 -0.26635 0)
(1.03593 -0.29773 0)
(1.01243 -0.328501 0)
(0.98376 -0.354644 0)
(0.952347 -0.370846 0)
(0.921397 -0.379534 0)
(0.889964 -0.394403 0)
(0.843223 -0.408925 0)
(0.786197 -0.408913 0)
(0.745015 -0.40489 0)
(1.02534 -0.00295386 0)
(1.02697 -0.00996619 0)
(1.02979 -0.0160646 0)
(1.03346 -0.0231108 0)
(1.03793 -0.0302347 0)
(1.04273 -0.0381726 0)
(1.04767 -0.0467034 0)
(1.05247 -0.0559331 0)
(1.05695 -0.0657874 0)
(1.06103 -0.0762456 0)
(1.06473 -0.0873224 0)
(1.06818 -0.0991686 0)
(1.0715 -0.112089 0)
(1.07472 -0.126554 0)
(1.07772 -0.143138 0)
(1.08023 -0.162431 0)
(1.08185 -0.184963 0)
(1.08186 -0.211077 0)
(1.07886 -0.240809 0)
(1.0712 -0.27398 0)
(1.05757 -0.31 0)
(1.03672 -0.347368 0)
(1.00715 -0.385679 0)
(0.967875 -0.428262 0)
(0.91716 -0.47236 0)
(0.854083 -0.496724 0)
(0.796929 -0.494897 0)
(0.762164 -0.490739 0)
(0.726011 -0.481664 0)
(1.02579 -0.0029508 0)
(1.02746 -0.00994114 0)
(1.03035 -0.0160281 0)
(1.03411 -0.0230627 0)
(1.03872 -0.030178 0)
(1.04366 -0.0381253 0)
(1.04879 -0.0466726 0)
(1.05381 -0.0559341 0)
(1.05852 -0.065824 0)
(1.06287 -0.076307 0)
(1.06689 -0.0873785 0)
(1.07077 -0.0991731 0)
(1.07467 -0.111993 0)
(1.07872 -0.126333 0)
(1.08288 -0.14283 0)
(1.08696 -0.162172 0)
(1.09064 -0.185024 0)
(1.09329 -0.211953 0)
(1.0935 -0.243253 0)
(1.08946 -0.278966 0)
(1.07976 -0.31904 0)
(1.063 -0.362843 0)
(1.03775 -0.407919 0)
(1.005 -0.44822 0)
(0.966308 -0.474918 0)
(0.924657 -0.495231 0)
(0.874375 -0.531392 0)
(0.795864 -0.555567 0)
(0.713088 -0.552189 0)
(1.0262 -0.00294706 0)
(1.0279 -0.00991468 0)
(1.03086 -0.0159888 0)
(1.03469 -0.0230092 0)
(1.03942 -0.0301131 0)
(1.0445 -0.0380641 0)
(1.0498 -0.0466206 0)
(1.055 -0.0559055 0)
(1.05993 -0.0658201 0)
(1.06451 -0.0763149 0)
(1.06883 -0.0873645 0)
(1.07307 -0.0990834 0)
(1.07749 -0.111764 0)
(1.08226 -0.125911 0)
(1.08747 -0.142204 0)
(1.09301 -0.161412 0)
(1.09865 -0.184313 0)
(1.10383 -0.211646 0)
(1.1073 -0.243974 0)
(1.10715 -0.281592 0)
(1.10186 -0.324745 0)
(1.09041 -0.373445 0)
(1.07039 -0.426403 0)
(1.03747 -0.483828 0)
(0.989946 -0.553277 0)
(0.923909 -0.629684 0)
(0.832122 -0.668073 0)
(0.746762 -0.664816 0)
(0.690331 -0.664409 0)
(1.02657 -0.00294291 0)
(1.02829 -0.00988791 0)
(1.0313 -0.0159486 0)
(1.03521 -0.0229533 0)
(1.04004 -0.0300439 0)
(1.04524 -0.0379945 0)
(1.0507 -0.0465548 0)
(1.05607 -0.0558564 0)
(1.06119 -0.0657873 0)
(1.06599 -0.0762852 0)
(1.07055 -0.0873027 0)
(1.0751 -0.0989316 0)
(1.07996 -0.111448 0)
(1.08538 -0.125356 0)
(1.09151 -0.141363 0)
(1.09838 -0.1603 0)
(1.10584 -0.183039 0)
(1.11341 -0.210443 0)
(1.12 -0.243294 0)
(1.12387 -0.282184 0)
(1.12331 -0.327548 0)
(1.11736 -0.380041 0)
(1.1043 -0.440278 0)
(1.08036 -0.506008 0)
(1.04451 -0.567751 0)
(0.997367 -0.611035 0)
(0.941221 -0.657377 0)
(0.856309 -0.739779 0)
(0.715593 -0.770633 0)
(1.02689 -0.00293858 0)
(1.02864 -0.00986163 0)
(1.03169 -0.0159088 0)
(1.03567 -0.0228971 0)
(1.0406 -0.0299734 0)
(1.0459 -0.0379206 0)
(1.0515 -0.0464809 0)
(1.05702 -0.0557939 0)
(1.06231 -0.065735 0)
(1.06729 -0.0762303 0)
(1.07206 -0.08721 0)
(1.07689 -0.0987416 0)
(1.08212 -0.11108 0)
(1.08809 -0.124723 0)
(1.09505 -0.14039 0)
(1.1031 -0.158958 0)
(1.11221 -0.181376 0)
(1.122 -0.208599 0)
(1.13148 -0.241544 0)
(1.13921 -0.281088 0)
(1.1436 -0.327956 0)
(1.14338 -0.382893 0)
(1.13806 -0.447421 0)
(1.12391 -0.521897 0)
(1.08997 -0.606139 0)
(1.03538 -0.717992 0)
(0.959386 -0.862231 0)
(0.81433 -0.939727 0)
(0.639927 -0.929177 0)
(1.02717 -0.00293424 0)
(1.02895 -0.00983645 0)
(1.03204 -0.0158703 0)
(1.03607 -0.0228422 0)
(1.04109 -0.0299039 0)
(1.04649 -0.0378456 0)
(1.05221 -0.0464033 0)
(1.05786 -0.0557238 0)
(1.0633 -0.0656708 0)
(1.06844 -0.0761599 0)
(1.0734 -0.0870993 0)
(1.07846 -0.0985317 0)
(1.08401 -0.110689 0)
(1.09046 -0.124054 0)
(1.09813 -0.139354 0)
(1.10721 -0.157492 0)
(1.11779 -0.179474 0)
(1.12961 -0.206339 0)
(1.14173 -0.239073 0)
(1.15297 -0.278717 0)
(1.16224 -0.32638 0)
(1.16804 -0.382848 0)
(1.16969 -0.449795 0)
(1.16628 -0.531545 0)
(1.15105 -0.628113 0)
(1.11876 -0.7216 0)
(1.06549 -0.792136 0)
(0.990555 -0.910192 0)
(0.814864 -1.10166 0)
(1.02742 -0.00292999 0)
(1.02922 -0.00981275 0)
(1.03235 -0.0158338 0)
(1.03643 -0.0227898 0)
(1.04152 -0.029837 0)
(1.04701 -0.0377718 0)
(1.05284 -0.0463251 0)
(1.05861 -0.0556503 0)
(1.06418 -0.0656002 0)
(1.06946 -0.0760808 0)
(1.07457 -0.0869795 0)
(1.07983 -0.0983146 0)
(1.08565 -0.110293 0)
(1.0925 -0.123381 0)
(1.10078 -0.138303 0)
(1.11076 -0.15598 0)
(1.12263 -0.177455 0)
(1.13625 -0.203829 0)
(1.15079 -0.236148 0)
(1.16514 -0.275484 0)
(1.17882 -0.323229 0)
(1.19073 -0.380533 0)
(1.19928 -0.448559 0)
(1.20633 -0.532242 0)
(1.20932 -0.635621 0)
(1.18499 -0.750795 0)
(1.13209 -0.920664 0)
(1.06899 -1.23428 0)
(0.762306 -1.37975 0)
(0.999309 -0.00156072 0)
(0.999507 -0.00146091 0)
(0.99962 -0.00136215 0)
(0.999651 -0.00126381 0)
(0.999596 -0.00116518 0)
(0.999442 -0.00106522 0)
(0.999168 -0.000962843 0)
(0.998747 -0.000857093 0)
(0.998145 -0.000747218 0)
(0.99733 -0.000632878 0)
(0.996272 -0.000514381 0)
(0.994956 -0.000392899 0)
(0.993387 -0.000270613 0)
(0.991598 -0.0001507 0)
(0.989658 -3.71036e-05 0)
(0.987672 6.59487e-05 0)
(0.985773 0.000154624 0)
(0.984113 0.000226263 0)
(0.982844 0.000280068 0)
(0.997605 -0.00358584 0)
(0.997446 -0.00341525 0)
(0.997351 -0.00323669 0)
(0.997313 -0.00305291 0)
(0.997331 -0.00286523 0)
(0.997418 -0.00267541 0)
(0.997593 -0.00248568 0)
(0.997889 -0.00229852 0)
(0.998345 -0.00211661 0)
(0.999008 -0.0019425 0)
(0.999923 -0.00177823 0)
(1.00113 -0.00162479 0)
(1.00265 -0.0014816 0)
(1.00447 -0.00134613 0)
(1.00654 -0.00121382 0)
(1.00875 -0.00107847 0)
(1.01096 -0.000933191 0)
(1.01298 -0.000771737 0)
(1.01462 -0.000589948 0)
(0.993178 -0.00770673 0)
(0.993184 -0.00735983 0)
(0.993139 -0.00701103 0)
(0.99305 -0.00665999 0)
(0.992922 -0.00630709 0)
(0.992748 -0.00595186 0)
(0.99252 -0.00559348 0)
(0.992217 -0.00523092 0)
(0.991814 -0.00486295 0)
(0.991275 -0.00448837 0)
(0.990562 -0.00410638 0)
(0.989635 -0.00371706 0)
(0.988464 -0.00332192 0)
(0.987038 -0.0029243 0)
(0.985378 -0.00252941 0)
(0.98355 -0.00214388 0)
(0.981666 -0.0017746 0)
(0.979884 -0.00142708 0)
(0.978384 -0.00110359 0)
(0.989699 -0.0127146 0)
(0.989486 -0.0124057 0)
(0.98933 -0.0120906 0)
(0.98922 -0.0117709 0)
(0.989154 -0.0114455 0)
(0.989135 -0.0111132 0)
(0.989177 -0.0107731 0)
(0.989302 -0.0104238 0)
(0.989545 -0.0100637 0)
(0.989949 -0.00969085 0)
(0.990567 -0.00930247 0)
(0.991454 -0.00889463 0)
(0.992655 -0.00846167 0)
(0.994193 -0.00799586 0)
(0.99605 -0.00748753 0)
(0.998151 -0.00692591 0)
(1.00035 -0.00630108 0)
(1.00246 -0.00560676 0)
(1.00422 -0.00484344 0)
(0.983449 -0.0152833 0)
(0.983317 -0.0145894 0)
(0.983134 -0.0138788 0)
(0.982904 -0.013151 0)
(0.982626 -0.0124067 0)
(0.982292 -0.0116461 0)
(0.981889 -0.010869 0)
(0.981398 -0.0100759 0)
(0.980791 -0.00926776 0)
(0.980027 -0.00844614 0)
(0.979058 -0.00761405 0)
(0.977827 -0.00677649 0)
(0.976278 -0.00594132 0)
(0.974369 -0.00511996 0)
(0.972097 -0.0043275 0)
(0.969515 -0.00358188 0)
(0.966762 -0.00290146 0)
(0.964059 -0.00230122 0)
(0.9617 -0.00178817 0)
(0.976402 -0.0212718 0)
(0.975877 -0.0206508 0)
(0.975393 -0.0200158 0)
(0.974941 -0.0193699 0)
(0.974518 -0.0187128 0)
(0.974131 -0.0180453 0)
(0.973795 -0.0173691 0)
(0.973537 -0.0166862 0)
(0.973399 -0.0159992 0)
(0.973436 -0.0153105 0)
(0.973721 -0.0146221 0)
(0.974341 -0.0139338 0)
(0.975384 -0.0132427 0)
(0.976926 -0.0125409 0)
(0.978999 -0.011815 0)
(0.981562 -0.0110458 0)
(0.984468 -0.0102106 0)
(0.987456 -0.00928733 0)
(0.990166 -0.00826142 0)
(0.96786 -0.0260172 0)
(0.967434 -0.024859 0)
(0.966964 -0.023675 0)
(0.966464 -0.0224673 0)
(0.965944 -0.0212397 0)
(0.965409 -0.0199952 0)
(0.964858 -0.0187367 0)
(0.964284 -0.0174675 0)
(0.963666 -0.0161904 0)
(0.962968 -0.0149083 0)
(0.962132 -0.0136241 0)
(0.961075 -0.0123414 0)
(0.959692 -0.0110655 0)
(0.957875 -0.00980525 0)
(0.955535 -0.0085742 0)
(0.952648 -0.0073913 0)
(0.949306 -0.00627923 0)
(0.94575 -0.00525982 0)
(0.942377 -0.00434677 0)
(0.957784 -0.034226 0)
(0.956847 -0.0332381 0)
(0.955971 -0.032231 0)
(0.955153 -0.0312098 0)
(0.954395 -0.0301742 0)
(0.953707 -0.0291249 0)
(0.953105 -0.0280632 0)
(0.952614 -0.0269899 0)
(0.952268 -0.0259061 0)
(0.952113 -0.0248126 0)
(0.952218 -0.0237098 0)
(0.95267 -0.0225967 0)
(0.953574 -0.0214698 0)
(0.955042 -0.0203214 0)
(0.957162 -0.019137 0)
(0.959949 -0.017894 0)
(0.963291 -0.0165625 0)
(0.9669 -0.0151097 0)
(0.970316 -0.013509 0)
(0.947434 -0.0429805 0)
(0.946625 -0.0413353 0)
(0.945797 -0.0396477 0)
(0.944969 -0.0379204 0)
(0.944157 -0.0361575 0)
(0.943368 -0.0343611 0)
(0.942605 -0.0325326 0)
(0.941864 -0.0306734 0)
(0.941126 -0.0287841 0)
(0.940357 -0.0268651 0)
(0.939496 -0.0249162 0)
(0.93845 -0.0229376 0)
(0.937088 -0.0209309 0)
(0.93525 -0.0189016 0)
(0.932771 -0.0168615 0)
(0.929536 -0.0148318 0)
(0.925556 -0.0128435 0)
(0.921051 -0.010933 0)
(0.916497 -0.00913265 0)
(0.935629 -0.0527914 0)
(0.934129 -0.0513636 0)
(0.932717 -0.0498905 0)
(0.931383 -0.048378 0)
(0.930126 -0.0468256 0)
(0.928949 -0.0452336 0)
(0.92786 -0.043602 0)
(0.926875 -0.0419312 0)
(0.926014 -0.0402211 0)
(0.925312 -0.0384719 0)
(0.924823 -0.0366837 0)
(0.924627 -0.034857 0)
(0.92484 -0.0329914 0)
(0.925607 -0.0310842 0)
(0.927081 -0.0291269 0)
(0.929371 -0.0271019 0)
(0.932458 -0.0249796 0)
(0.936103 -0.0227208 0)
(0.939792 -0.020287 0)
(0.923438 -0.0656612 0)
(0.921933 -0.0634087 0)
(0.920428 -0.0610798 0)
(0.918944 -0.0586785 0)
(0.917495 -0.0562079 0)
(0.916088 -0.0536687 0)
(0.914727 -0.0510611 0)
(0.91341 -0.0483853 0)
(0.912124 -0.0456418 0)
(0.910844 -0.0428311 0)
(0.909524 -0.0399542 0)
(0.908086 -0.0370125 0)
(0.906408 -0.0340089 0)
(0.904321 -0.0309497 0)
(0.901616 -0.0278477 0)
(0.898094 -0.0247267 0)
(0.893659 -0.0216261 0)
(0.888449 -0.0185986 0)
(0.882958 -0.0156995 0)
(0.910181 -0.0774434 0)
(0.90777 -0.0754038 0)
(0.905477 -0.0732615 0)
(0.903283 -0.0710271 0)
(0.901182 -0.0687053 0)
(0.899173 -0.0663025 0)
(0.897257 -0.0638253 0)
(0.895446 -0.0612808 0)
(0.893754 -0.0586755 0)
(0.892207 -0.056016 0)
(0.890851 -0.0533082 0)
(0.889757 -0.0505579 0)
(0.889034 -0.0477703 0)
(0.888843 -0.0449484 0)
(0.889382 -0.0420897 0)
(0.890849 -0.0391804 0)
(0.893344 -0.0361881 0)
(0.896722 -0.0330587 0)
(0.900467 -0.0297253 0)
(0.896043 -0.0948537 0)
(0.89337 -0.0918131 0)
(0.890731 -0.0886538 0)
(0.888154 -0.0853828 0)
(0.885659 -0.0820027 0)
(0.883259 -0.078513 0)
(0.880961 -0.0749126 0)
(0.878768 -0.0712013 0)
(0.876675 -0.0673789 0)
(0.874668 -0.0634462 0)
(0.872714 -0.0594049 0)
(0.870756 -0.0552575 0)
(0.868693 -0.0510078 0)
(0.866365 -0.0466619 0)
(0.863543 -0.042232 0)
(0.85995 -0.0377427 0)
(0.85535 -0.0332403 0)
(0.84972 -0.0287982 0)
(0.843481 -0.0245091 0)
(0.881258 -0.110163 0)
(0.877466 -0.107253 0)
(0.87385 -0.104126 0)
(0.870395 -0.100808 0)
(0.86709 -0.0973165 0)
(0.863931 -0.0936728 0)
(0.860923 -0.0898992 0)
(0.85807 -0.0860182 0)
(0.855384 -0.0820521 0)
(0.852884 -0.0780224 0)
(0.8506 -0.0739497 0)
(0.848588 -0.0698532 0)
(0.846938 -0.065751 0)
(0.845794 -0.0616588 0)
(0.845369 -0.0575868 0)
(0.845927 -0.0535326 0)
(0.847701 -0.0494679 0)
(0.850713 -0.0453245 0)
(0.854524 -0.0409915 0)
(0.865 -0.132663 0)
(0.860514 -0.128495 0)
(0.856148 -0.12414 0)
(0.851937 -0.119599 0)
(0.847913 -0.114881 0)
(0.844103 -0.109985 0)
(0.840522 -0.104914 0)
(0.83718 -0.0996729 0)
(0.834081 -0.0942678 0)
(0.831218 -0.0887055 0)
(0.828573 -0.0829935 0)
(0.826106 -0.0771398 0)
(0.823738 -0.0711526 0)
(0.821333 -0.0650409 0)
(0.818664 -0.0588175 0)
(0.815399 -0.0525055 0)
(0.811146 -0.0461549 0)
(0.805623 -0.03986 0)
(0.799012 -0.033769 0)
(0.848151 -0.153471 0)
(0.842183 -0.149251 0)
(0.836498 -0.144565 0)
(0.831108 -0.139503 0)
(0.826021 -0.134095 0)
(0.821234 -0.128395 0)
(0.816765 -0.122453 0)
(0.812623 -0.11632 0)
(0.808819 -0.110049 0)
(0.805364 -0.103692 0)
(0.802276 -0.0973015 0)
(0.799585 -0.0909322 0)
(0.797346 -0.0846369 0)
(0.795665 -0.0784664 0)
(0.794721 -0.0724668 0)
(0.794794 -0.0666716 0)
(0.796233 -0.0610819 0)
(0.799293 -0.0556413 0)
(0.803777 -0.0501957 0)
(0.82928 -0.182227 0)
(0.821857 -0.176277 0)
(0.814736 -0.169987 0)
(0.807968 -0.163296 0)
(0.801599 -0.156239 0)
(0.795701 -0.148839 0)
(0.790299 -0.141119 0)
(0.785426 -0.133122 0)
(0.781097 -0.12489 0)
(0.777321 -0.116465 0)
(0.774091 -0.107891 0)
(0.771381 -0.0992037 0)
(0.769133 -0.0904374 0)
(0.767231 -0.0816188 0)
(0.765467 -0.0727704 0)
(0.763485 -0.0639147 0)
(0.760751 -0.0551027 0)
(0.756651 -0.0464334 0)
(0.750835 -0.0381107 0)
(0.80955 -0.210919 0)
(0.799827 -0.204667 0)
(0.790606 -0.197417 0)
(0.781913 -0.189402 0)
(0.773875 -0.180708 0)
(0.766489 -0.171423 0)
(0.759832 -0.161667 0)
(0.753933 -0.151539 0)
(0.748825 -0.141152 0)
(0.744518 -0.130623 0)
(0.741019 -0.120073 0)
(0.738325 -0.109629 0)
(0.736445 -0.0994229 0)
(0.735409 -0.0895875 0)
(0.735314 -0.0802543 0)
(0.736373 -0.0715495 0)
(0.738961 -0.0635505 0)
(0.743545 -0.0562861 0)
(0.750425 -0.0496161 0)
(0.787401 -0.248593 0)
(0.774982 -0.239925 0)
(0.763042 -0.230428 0)
(0.751942 -0.220049 0)
(0.741632 -0.208772 0)
(0.732344 -0.196751 0)
(0.724122 -0.184061 0)
(0.717058 -0.170852 0)
(0.711187 -0.157263 0)
(0.70655 -0.143446 0)
(0.703144 -0.129543 0)
(0.70095 -0.115692 0)
(0.699911 -0.102009 0)
(0.699916 -0.0885911 0)
(0.700757 -0.0755087 0)
(0.702065 -0.0627941 0)
(0.703193 -0.0505193 0)
(0.70324 -0.0387495 0)
(0.700915 -0.0276934 0)
(0.76464 -0.288614 0)
(0.747957 -0.27917 0)
(0.732534 -0.267926 0)
(0.717927 -0.254927 0)
(0.704727 -0.240637 0)
(0.692907 -0.225111 0)
(0.682675 -0.20864 0)
(0.674102 -0.191437 0)
(0.667284 -0.173741 0)
(0.66223 -0.1558 0)
(0.658959 -0.137869 0)
(0.657433 -0.120208 0)
(0.657601 -0.103089 0)
(0.659397 -0.0867966 0)
(0.662779 -0.0716216 0)
(0.667802 -0.0579009 0)
(0.674771 -0.0458542 0)
(0.684074 -0.0357688 0)
(0.69686 -0.0277286 0)
(0.738574 -0.339204 0)
(0.71777 -0.327041 0)
(0.697157 -0.312266 0)
(0.678473 -0.295812 0)
(0.661392 -0.277272 0)
(0.646413 -0.257168 0)
(0.633651 -0.235751 0)
(0.623297 -0.213334 0)
(0.615379 -0.190279 0)
(0.609995 -0.16691 0)
(0.607115 -0.14356 0)
(0.606724 -0.120555 0)
(0.608741 -0.0981972 0)
(0.613039 -0.0767629 0)
(0.619395 -0.0564939 0)
(0.627429 -0.0374657 0)
(0.636256 -0.0199066 0)
(0.645072 -0.00375802 0)
(0.65105 0.0109207 0)
(0.714178 -0.395985 0)
(0.684681 -0.381272 0)
(0.65836 -0.363957 0)
(0.633692 -0.342793 0)
(0.6118 -0.31908 0)
(0.59284 -0.293168 0)
(0.577096 -0.265458 0)
(0.564583 -0.236559 0)
(0.555515 -0.206858 0)
(0.549794 -0.176816 0)
(0.547481 -0.146865 0)
(0.548508 -0.117426 0)
(0.552815 -0.0889543 0)
(0.560291 -0.0619435 0)
(0.570802 -0.036903 0)
(0.584144 -0.0146414 0)
(0.600793 0.00445244 0)
(0.620157 0.0193011 0)
(0.645019 0.0290337 0)
(0.68358 -0.464336 0)
(0.647773 -0.447426 0)
(0.612834 -0.424182 0)
(0.581329 -0.397051 0)