/*--------------------------------*- C++ -*----------------------------------*\
  =========                 |
  \\      /  F ield         | OpenFOAM: The Open Source CFD Toolbox
   \\    /   O peration     | Website:  https://openfoam.org
    \\  /    A nd           | Version:  10
     \\/     M anipulation  |
\*---------------------------------------------------------------------------*/
FoamFile
{
    format      ascii;
    class       volScalarField;
    location    "0";
    object      p;
}
// * * * * * * * * * * * * * * * * * * * * * * * * * * * * * * * * * * * * * //

dimensions      [0 2 -2 0 0 0 0];

internalField   nonuniform List<scalar> 
18483
(
0.102415
0.103822
0.106094
0.109238
0.113024
0.117308
0.12192
0.126704
0.131513
0.136211
0.140691
0.144875
0.148721
0.152214
0.155339
0.15809
0.16046
0.162466
0.164146
0.165564
0.166791
0.167868
0.1688
0.169593
0.170266
0.170842
0.171337
0.171762
0.172124
0.101861
0.103243
0.10545
0.108526
0.112244
0.11648
0.121074
0.125877
0.130749
0.135555
0.140186
0.144557
0.148598
0.152266
0.155537
0.158434
0.161015
0.163354
0.16549
0.16741
0.169085
0.170494
0.171657
0.172623
0.173431
0.174108
0.174674
0.175148
0.175546
0.100815
0.102135
0.104228
0.107175
0.110762
0.114895
0.119437
0.124264
0.129245
0.134253
0.139168
0.143881
0.148291
0.152335
0.156017
0.15937
0.16238
0.164995
0.167189
0.168999
0.170491
0.171757
0.172858
0.173818
0.174649
0.175365
0.175979
0.176505
0.176954
0.0995507
0.100789
0.102742
0.105519
0.108931
0.112915
0.117365
0.122184
0.127254
0.132445
0.137619
0.142648
0.14744
0.151938
0.156097
0.159858
0.163186
0.166125
0.168766
0.17117
0.17335
0.175283
0.176944
0.178353
0.179549
0.180559
0.181406
0.182117
0.182713
0.0982266
0.0993706
0.101163
0.103738
0.106928
0.110707
0.115
0.119741
0.124835
0.130172
0.135634
0.141118
0.146527
0.151747
0.156659
0.161174
0.165276
0.168944
0.172129
0.174804
0.17702
0.178869
0.180453
0.181834
0.183031
0.184067
0.184962
0.185735
0.186398
0.0968838
0.0979219
0.0995329
0.101872
0.104787
0.108293
0.11235
0.11693
0.121982
0.127432
0.133183
0.139103
0.145031
0.150783
0.156207
0.161221
0.165781
0.169899
0.173631
0.17706
0.180219
0.183075
0.18559
0.187737
0.189563
0.191113
0.192419
0.193515
0.194436
0.0955268
0.0964483
0.0978622
0.0999358
0.102534
0.105705
0.109446
0.113769
0.118666
0.124092
0.12995
0.136095
0.142368
0.148644
0.154831
0.160833
0.16655
0.171883
0.17668
0.180834
0.184343
0.1873
0.189815
0.192008
0.193929
0.195597
0.197043
0.198291
0.199362
0.0941696
0.0949674
0.0961773
0.0979695
0.100226
0.103015
0.106367
0.11033
0.114936
0.120185
0.126028
0.132386
0.139157
0.146198
0.15331
0.160252
0.166783
0.172736
0.178133
0.183094
0.187694
0.191912
0.195681
0.198952
0.201748
0.204133
0.206155
0.207861
0.209301
0.0928441
0.0935142
0.0945214
0.0960282
0.0979292
0.100301
0.103207
0.106723
0.110935
0.115907
0.121662
0.128164
0.13529
0.142827
0.150525
0.15818
0.165668
0.172901
0.179754
0.185964
0.191356
0.195971
0.199961
0.203458
0.20654
0.209228
0.21156
0.213572
0.215296
0.0915876
0.0921274
0.0929383
0.0941618
0.0957019
0.097637
0.100051
0.103053
0.106773
0.111327
0.116782
0.123125
0.130264
0.138059
0.14635
0.154959
0.163638
0.172034
0.179819
0.186971
0.193659
0.199892
0.205522
0.21046
0.214699
0.218329
0.221421
0.224041
0.226262
0.0904218
0.0908324
0.0914572
0.092407
0.093589
0.0950794
0.0969721
0.0993992
0.102516
0.106473
0.111394
0.11735
0.124364
0.132394
0.14127
0.150693
0.160324
0.169895
0.179232
0.188112
0.196147
0.203161
0.209286
0.214692
0.219507
0.223742
0.22742
0.230595
0.233307
0.089348
0.0896379
0.0900903
0.0907827
0.0916194
0.0926693
0.094028
0.0958351
0.0982635
0.101506
0.105762
0.111203
0.117923
0.125893
0.134944
0.144818
0.155255
0.165987
0.1766
0.186646
0.19608
0.20504
0.213358
0.22079
0.22718
0.232637
0.237296
0.241248
0.2446
0.0883579
0.0885433
0.0888382
0.0892929
0.0898043
0.0904289
0.0912584
0.0924302
0.0941328
0.0965961
0.100073
0.104786
0.110871
0.118378
0.127285
0.137476
0.148696
0.160572
0.172713
0.184761
0.196225
0.206592
0.215742
0.223865
0.231199
0.237741
0.243443
0.248365
0.252562
0.0874435
0.0875463
0.0876984
0.0879356
0.0881434
0.0883658
0.0886848
0.089227
0.0901882
0.0918086
0.0943616
0.0981096
0.103282
0.110076
0.11861
0.128813
0.140413
0.153048
0.166321
0.179668
0.192585
0.205068
0.217077
0.228114
0.237739
0.24593
0.252924
0.258861
0.263886
0.0865995
0.086644
0.0866666
0.0867068
0.0866348
0.0864833
0.0863189
0.0862484
0.0864602
0.0871864
0.0887165
0.0913697
0.0954776
0.101327
0.109096
0.118803
0.130325
0.143447
0.157852
0.173068
0.188484
0.203186
0.216558
0.22863
0.239626
0.24964
0.258459
0.26606
0.272532
0.085823
0.0858296
0.0857355
0.0855999
0.0852742
0.0847805
0.0841655
0.0835104
0.0829864
0.0828168
0.0833047
0.0848072
0.0877023
0.0923128
0.0989093
0.1077
0.118757
0.13194
0.146941
0.163205
0.179865
0.196489
0.213126
0.229167
0.24372
0.256198
0.266863
0.275987
0.283708
0.0851129
0.0850928
0.0848946
0.0846043
0.084051
0.0832497
0.0822207
0.0810214
0.0798016
0.0787729
0.0782301
0.0785285
0.0800565
0.0831928
0.0883297
0.0958332
0.105904
0.118501
0.133493
0.150659
0.169439
0.188911
0.20775
0.225272
0.241425
0.256592
0.270341
0.282265
0.292428
0.0844692
0.0844235
0.0841326
0.0837067
0.0829497
0.081875
0.0804708
0.0787737
0.0769082
0.0750635
0.0735038
0.0725628
0.0726406
0.0741803
0.0776426
0.0834657
0.0919923
0.103398
0.117754
0.134986
0.15445
0.174975
0.196368
0.218602
0.240171
0.259369
0.275881
0.290239
0.302558
0.0838903
0.0838148
0.0834405
0.0828962
0.0819572
0.0806404
0.0788987
0.0767491
0.074286
0.0716664
0.0691218
0.0669631
0.0655948
0.065481
0.0670937
0.0709164
0.0774544
0.0870932
0.100037
0.116437
0.136272
0.158947
0.18315
0.207098
0.230233
0.25259
0.273923
0.292953
0.30929
0.0833715
0.0832622
0.0828131
0.0821664
0.081065
0.0795346
0.0774907
0.0749312
0.0719179
0.0685739
0.0651052
0.0617968
0.0590258
0.0572341
0.0568935
0.0585225
0.0627223
0.0700283
0.0807919
0.0954156
0.114203
0.136503
0.161253
0.188833
0.218394
0.247177
0.272717
0.295324
0.315322
0.0829064
0.0827626
0.0822472
0.0815129
0.0802668
0.0785493
0.0762363
0.0733085
0.069796
0.0657901
0.0614708
0.0570869
0.0529687
0.049516
0.0471989
0.0465364
0.0481308
0.0526318
0.0605499
0.0724151
0.0889431
0.110524
0.136712
0.16601
0.19637
0.226997
0.258432
0.288534
0.315029
0.0824884
0.0823134
0.0817404
0.0809308
0.0795566
0.0776768
0.075125
0.0718701
0.0679113
0.0633082
0.058207
0.052815
0.0474153
0.0423671
0.038112
0.0351344
0.0339837
0.0353613
0.0399134
0.0482131
0.0612089
0.0797781
0.103244
0.131367
0.166239
0.205493
0.243725
0.27833
0.310236
0.0821133
0.0819119
0.0812887
0.0804144
0.0789278
0.0769077
0.074145
0.0706022
0.0662464
0.0611063
0.0552879
0.0489595
0.0423633
0.035816
0.029704
0.0244566
0.0205511
0.0186411
0.0194487
0.0235588
0.031815
0.0457447
0.0664868
0.0938509
0.126746
0.164208
0.205462
0.250438
0.293298
0.0817781
0.0815544
0.0808873
0.0799578
0.0783729
0.0762316
0.0732836
0.0694889
0.06478
0.0591586
0.0526914
0.0455107
0.0378183
0.0298806
0.0220177
0.0146002
0.00802022
0.00279883
-0.00037943
-0.000872788
0.00194234
0.00959378
0.0239776
0.0443662
0.0720246
0.113268
0.164888
0.216626
0.265747
0.0814799
0.0812369
0.0805316
0.0795547
0.0778847
0.0756391
0.0725288
0.0685141
0.0634931
0.0574446
0.0504007
0.0424574
0.0337712
0.0245556
0.0150654
0.00560523
-0.00351759
-0.0119456
-0.0191656
-0.0245136
-0.0274875
-0.0273439
-0.0216347
-0.00724826
0.015065
0.0445212
0.0867103
0.144579
0.21286
0.0812151
0.0809552
0.0802177
0.0791989
0.077456
0.0751208
0.071869
0.0676631
0.0623692
0.0559463
0.0483934
0.0397719
0.0301919
0.0198148
0.00883515
-0.0025198
-0.0140288
-0.0254682
-0.0365741
-0.0468899
-0.0558417
-0.0633075
-0.0681522
-0.0663211
-0.0578446
-0.0428404
-0.00568203
0.0621123
0.141196
0.0809807
0.0807055
0.0799412
0.0788854
0.0770806
0.0746678
0.071294
0.0669228
0.061392
0.0546416
0.0466404
0.0374172
0.0270401
0.0156207
0.00329618
-0.0097844
-0.0234947
-0.0377256
-0.0524185
-0.0675396
-0.082638
-0.0974869
-0.113223
-0.127497
-0.131013
-0.128233
-0.13368
-0.108198
-0.00699541
0.0807739
0.0804848
0.0796982
0.0786096
0.0767531
0.0742722
0.0707943
0.0662801
0.0605431
0.0535072
0.0451129
0.0353586
0.0242766
0.0119317
-0.00159388
-0.0162212
-0.0319219
-0.0487163
-0.0666748
-0.086146
-0.107327
-0.129689
-0.154803
-0.185634
-0.214805
-0.236969
-0.278891
-0.321971
-0.219193
0.0805918
0.0802904
0.0794852
0.0783672
0.0764681
0.0739275
0.0703608
0.0657229
0.0598067
0.0525227
0.0437856
0.0335661
0.0218647
0.00870466
-0.0058836
-0.0218849
-0.0393549
-0.0584601
-0.079391
-0.102678
-0.129384
-0.159368
-0.193013
-0.237689
-0.29612
-0.345728
-0.402767
-0.585166
-0.720697
0.172433
0.172717
0.172996
0.173268
0.173534
0.173793
0.174046
0.174293
0.174534
0.17477
0.174999
0.175223
0.175441
0.175653
0.175859
0.176058
0.176249
0.17643
0.176601
0.17588
0.176183
0.176477
0.176762
0.177038
0.177305
0.177562
0.17781
0.178048
0.178276
0.178494
0.178702
0.1789
0.179087
0.179265
0.179432
0.179589
0.179738
0.179877
0.177338
0.177693
0.178042
0.178384
0.17872
0.17905
0.179373
0.179689
0.179999
0.180301
0.180595
0.180882
0.181162
0.181433
0.181695
0.181949
0.182194
0.182428
0.182651
0.183214
0.183665
0.184101
0.184522
0.184928
0.185318
0.185692
0.186051
0.186394
0.186722
0.187034
0.18733
0.187611
0.187877
0.188129
0.188366
0.188589
0.188798
0.188995
0.186969
0.187499
0.188022
0.188538
0.189047
0.189547
0.190038
0.19052
0.190992
0.191454
0.191906
0.192345
0.192774
0.19319
0.193593
0.193983
0.194358
0.194717
0.195058
0.195212
0.195911
0.196588
0.197241
0.197871
0.198477
0.199058
0.199615
0.200148
0.200655
0.201138
0.201595
0.202028
0.202436
0.20282
0.203181
0.203521
0.203839
0.204136
0.200285
0.20114
0.201985
0.202818
0.203637
0.204443
0.205234
0.206009
0.206769
0.207512
0.208237
0.208944
0.209633
0.210301
0.21095
0.211577
0.212181
0.212758
0.213308
0.210519
0.211623
0.212693
0.21373
0.214733
0.2157
0.216633
0.217528
0.218386
0.219206
0.219988
0.22073
0.221432
0.222094
0.222717
0.2233
0.223845
0.224355
0.224831
0.216777
0.218146
0.219496
0.220824
0.222127
0.223406
0.224657
0.225881
0.227076
0.228241
0.229375
0.230479
0.231551
0.23259
0.233595
0.234566
0.235499
0.236391
0.237238
0.22815
0.229869
0.231541
0.233168
0.234748
0.23628
0.237761
0.23919
0.240565
0.241882
0.243141
0.244337
0.24547
0.246536
0.247536
0.248467
0.249333
0.250136
0.250879
0.23563
0.237769
0.239868
0.241921
0.243923
0.245873
0.247769
0.249608
0.25139
0.253115
0.254782
0.256394
0.25795
0.259451
0.260898
0.262292
0.263631
0.264912
0.26613
0.247456
0.25006
0.252599
0.255073
0.257481
0.259817
0.26208
0.264265
0.266366
0.26838
0.270301
0.272124
0.273843
0.275454
0.276953
0.278339
0.279613
0.28078
0.281848
0.256136
0.259404
0.262586
0.265672
0.268652
0.271522
0.274277
0.276916
0.279436
0.28184
0.28413
0.286309
0.288382
0.290354
0.29223
0.294017
0.295719
0.29734
0.298878
0.268165
0.272059
0.275847
0.279524
0.283083
0.286517
0.289817
0.292974
0.295982
0.298832
0.301519
0.304034
0.306374
0.308531
0.310503
0.312288
0.313887
0.31531
0.316572
0.278012
0.282986
0.287782
0.29238
0.296762
0.300916
0.304831
0.308502
0.311924
0.315098
0.318026
0.320714
0.323175
0.325421
0.32747
0.329341
0.331053
0.33263
0.334093
0.290274
0.296235
0.301995
0.30753
0.312813
0.317817
0.322522
0.32691
0.330968
0.334687
0.338065
0.341099
0.343793
0.346152
0.348181
0.349889
0.351287
0.352397
0.353254
0.301015
0.308752
0.316156
0.323172
0.329761
0.335891
0.34153
0.346656
0.351248
0.355296
0.358799
0.361764
0.36421
0.366167
0.367673
0.368779
0.369542
0.370031
0.370322
0.313063
0.32262
0.331806
0.340541
0.348736
0.356316
0.363222
0.369404
0.374832
0.379488
0.383372
0.386496
0.388888
0.390583
0.391624
0.39206
0.391942
0.391326
0.390296
0.323196
0.335714
0.347666
0.358923
0.369375
0.378927
0.387485
0.394976
0.401342
0.406549
0.41058
0.413442
0.415165
0.415799
0.415424
0.414146
0.412094
0.40943
0.406352
0.332619
0.348487
0.363762
0.3782
0.391593
0.403746
0.414517
0.423784
0.431467
0.437515
0.441911
0.444673
0.445854
0.445542
0.44386
0.440951
0.436981
0.432093
0.42646
0.337914
0.358716
0.37862
0.397371
0.414648
0.430221
0.44387
0.45544
0.464811
0.471912
0.476703
0.479185
0.47939
0.477389
0.473293
0.467277
0.459548
0.450429
0.44035
0.338853
0.365401
0.39112
0.415302
0.437532
0.457402
0.474656
0.489097
0.500597
0.509079
0.514502
0.516859
0.516184
0.51256
0.50615
0.497189
0.486077
0.473157
0.458767
0.331
0.365807
0.399123
0.430321
0.458681
0.483774
0.50531
0.52313
0.537146
0.547317
0.55361
0.555994
0.55444
0.548934
0.53949
0.526246
0.50928
0.489113
0.466483
0.312906
0.357684
0.400887
0.440815
0.476559
0.507665
0.533963
0.555456
0.57221
0.584285
0.591702
0.594409
0.592296
0.585205
0.57302
0.555619
0.533547
0.507221
0.477943
0.277663
0.337553
0.394054
0.445027
0.489468
0.527202
0.55845
0.583637
0.603108
0.617149
0.62587
0.629215
0.62695
0.618689
0.603787
0.581829
0.551742
0.513961
0.468368
0.221347
0.302496
0.377569
0.442285
0.496678
0.541164
0.57723
0.605734
0.627657
0.643494
0.653549
0.657772
0.655804
0.646898
0.630098
0.603493
0.566682
0.517433
0.461388
0.129766
0.248758
0.350354
0.432816
0.497661
0.549079
0.589136
0.620473
0.644301
0.661613
0.672813
0.677923
0.676467
0.667429
0.648891
0.618559
0.570763
0.502248
0.402005
0.000569811
0.171591
0.318274
0.420299
0.49611
0.552333
0.595729
0.628827
0.653998
0.672248
0.68425
0.690026
0.689085
0.679912
0.660858
0.625293
0.571056
0.473838
0.356711
-0.309331
0.108855
0.280102
0.413805
0.491137
0.552782
0.597448
0.63168
0.657447
0.676156
0.688478
0.694465
0.693574
0.684159
0.663595
0.625693
0.553581
0.427373
0.0437615
0.17676
0.176906
0.177038
0.177158
0.177266
0.177362
0.177448
0.177526
0.177596
0.177661
0.177721
0.177776
0.177826
0.177871
0.177909
0.17794
0.17796
0.177969
0.177965
0.180009
0.180132
0.180248
0.180357
0.180459
0.180553
0.18064
0.180718
0.180789
0.18085
0.180903
0.180946
0.180981
0.181006
0.181023
0.181032
0.181032
0.181024
0.181008
0.182862
0.183061
0.183247
0.183418
0.183576
0.18372
0.18385
0.183965
0.184067
0.184154
0.184228
0.184289
0.184336
0.18437
0.18439
0.184397
0.184389
0.184368
0.184332
0.189178
0.18935
0.18951
0.189659
0.189797
0.189924
0.190041
0.190146
0.190241
0.190324
0.190395
0.190455
0.190503
0.190539
0.190563
0.190575
0.190576
0.190564
0.190541
0.19538
0.195682
0.195961
0.196218
0.196453
0.196664
0.196852
0.197017
0.197159
0.197279
0.197375
0.197449
0.1975
0.197529
0.197534
0.197516
0.197475
0.19741
0.197324
0.204415
0.204676
0.204919
0.205145
0.205355
0.205549
0.205725
0.205885
0.206027
0.20615
0.206255
0.206341
0.206409
0.206458
0.206488
0.206498
0.20649
0.206462
0.206415
0.213824
0.214305
0.214747
0.21515
0.215512
0.215834
0.216115
0.216357
0.21656
0.216725
0.216851
0.216939
0.216989
0.217001
0.216973
0.216907
0.216803
0.21666
0.216482
0.225276
0.22569
0.226077
0.226436
0.226768
0.227073
0.22735
0.227599
0.227818
0.228007
0.228165
0.228293
0.22839
0.228455
0.22849
0.228492
0.228463
0.228401
0.228307
0.238033
0.238772
0.239448
0.240059
0.240604
0.241083
0.241497
0.241847
0.242134
0.242358
0.242519
0.242619
0.242657
0.242633
0.242547
0.242399
0.242189
0.241921
0.241599
0.251568
0.252206
0.252797
0.253343
0.253846
0.254305
0.254722
0.255094
0.25542
0.255701
0.255935
0.25612
0.256258
0.256345
0.256383
0.256369
0.256304
0.256184
0.256009
0.267277
0.268341
0.269316
0.270195
0.270976
0.27166
0.272248
0.272739
0.273135
0.273436
0.273642
0.273754
0.273774
0.273701
0.273535
0.273278
0.272933
0.272505
0.272001
0.282823
0.283715
0.284529
0.285273
0.285951
0.286566
0.287121
0.287615
0.288051
0.288428
0.288747
0.289005
0.2892
0.289329
0.289388
0.289372
0.289278
0.2891
0.288833
0.300328
0.301678
0.302915
0.304034
0.30503
0.305903
0.306653
0.307279
0.307781
0.308159
0.308414
0.308548
0.308563
0.308462
0.308247
0.30792
0.307489
0.30696
0.306344
0.317691
0.318684
0.319562
0.320338
0.321028
0.321648
0.322209
0.322724
0.323199
0.323639
0.324045
0.324413
0.324737
0.325006
0.325206
0.325321
0.325336
0.325239
0.325021
0.335454
0.336715
0.337874
0.338929
0.339878
0.340721
0.341457
0.342086
0.342605
0.343015
0.343319
0.343521
0.343625
0.343637
0.343562
0.343408
0.34318
0.342882
0.342515
0.353905
0.354389
0.35473
0.354951
0.355096
0.35522
0.355372
0.355586
0.355885
0.356279
0.356775
0.357369
0.358047
0.358783
0.359533
0.360242
0.360871
0.361395
0.361789
0.370489
0.370592
0.370673
0.370761
0.370871
0.371005
0.371163
0.371357
0.3716
0.371904
0.372275
0.372711
0.373209
0.373767
0.374395
0.375102
0.375886
0.376733
0.37761
0.388975
0.387464
0.38581
0.384075
0.382385
0.380894
0.379732
0.37897
0.378641
0.378759
0.379337
0.380384
0.381898
0.383838
0.386101
0.388551
0.391055
0.393528
0.39592
0.403075
0.399825
0.396802
0.394101
0.391728
0.389688
0.388015
0.386784
0.38609
0.386001
0.38653
0.38764
0.389265
0.391346
0.393867
0.39683
0.400261
0.404133
0.408303
0.420383
0.414107
0.407701
0.401348
0.395462
0.390424
0.386478
0.383695
0.382057
0.38154
0.382159
0.383973
0.387051
0.391412
0.396927
0.40329
0.410104
0.417047
0.424003
0.429812
0.419529
0.410166
0.401865
0.394444
0.3879
0.38235
0.378063
0.375344
0.374404
0.375284
0.377862
0.381891
0.387115
0.393401
0.400785
0.409388
0.419334
0.430283
0.443677
0.428269
0.412567
0.397446
0.384087
0.373177
0.364885
0.359025
0.355394
0.353881
0.354481
0.357292
0.362527
0.370485
0.381309
0.39464
0.409662
0.425207
0.440704
0.442498
0.419651
0.399836
0.382617
0.36737
0.353877
0.342475
0.333765
0.328207
0.326005
0.327205
0.33172
0.339217
0.349164
0.361159
0.375244
0.391774
0.411609
0.434662
0.447576
0.415796
0.383734
0.355238
0.33246
0.315539
0.30314
0.294261
0.28858
0.286023
0.286547
0.290158
0.296957
0.307459
0.32301
0.344998
0.372752
0.403492
0.433887
0.41896
0.376036
0.3423
0.314753
0.291845
0.272328
0.256691
0.24572
0.239131
0.236186
0.236629
0.240875
0.249616
0.26273
0.279068
0.298648
0.323747
0.356063
0.398533
0.401522
0.336155
0.27928
0.242887
0.221445
0.206286
0.194856
0.186784
0.18147
0.178681
0.178401
0.180487
0.185127
0.192829
0.204054
0.222319
0.256748
0.310983
0.372255
0.290495
0.215933
0.184808
0.168838
0.149689
0.134219
0.126103
0.121593
0.118288
0.115983
0.114695
0.114188
0.114814
0.119375
0.13095
0.14403
0.152657
0.179026
0.251316
0.148368
0.0354168
0.0390553
0.0483202
0.0488019
0.0518023
0.0543945
0.0546669
0.0538482
0.0523505
0.0499339
0.0467101
0.0418884
0.0341103
0.0256024
0.0185014
0.00113732
-0.00864801
0.0980411
-0.378411
-0.197106
-0.0753635
-0.0679788
-0.051699
-0.0296447
-0.0167866
-0.0106942
-0.0079239
-0.00829359
-0.0121331
-0.0191481
-0.0301256
-0.049206
-0.0774754
-0.0984952
-0.11766
-0.258724
-0.437874
0.177947
0.177915
0.177869
0.17781
0.17774
0.177659
0.177569
0.177471
0.177367
0.177256
0.177139
0.177017
0.176888
0.176754
0.176613
0.176466
0.176312
0.176152
0.175985
0.180985
0.180954
0.180916
0.180869
0.180813
0.180748
0.180674
0.18059
0.180497
0.180393
0.180279
0.180155
0.180021
0.179876
0.179722
0.179557
0.179383
0.179198
0.179003
0.184283
0.184219
0.184143
0.184053
0.183951
0.183838
0.183713
0.183578
0.183433
0.183278
0.183114
0.18294
0.182757
0.182566
0.182366
0.182158
0.181942
0.181717
0.181485
0.190505
0.190457
0.190396
0.190323
0.190237
0.190137
0.190024
0.189896
0.189754
0.189597
0.189425
0.189237
0.189035
0.188817
0.188584
0.188336
0.188073
0.187795
0.187502
0.197216
0.197087
0.196939
0.196773
0.196589
0.196388
0.196172
0.195939
0.195692
0.19543
0.195153
0.194863
0.194559
0.194242
0.193912
0.19357
0.193215
0.192849
0.192471
0.206349
0.206262
0.206155
0.206026
0.205875
0.205699
0.205499
0.205275
0.205025
0.20475
0.20445
0.204125
0.203775
0.203401
0.203003
0.20258
0.202135
0.201667
0.201175
0.216271
0.216028
0.215756
0.215457
0.215131
0.21478
0.214404
0.214004
0.213581
0.213135
0.212668
0.212179
0.211669
0.211139
0.210588
0.210018
0.209428
0.208819
0.208193
0.228179
0.228015
0.227813
0.22757
0.227286
0.226959
0.226589
0.226175
0.225719
0.22522
0.22468
0.224099
0.223479
0.222821
0.222124
0.221392
0.220624
0.219823
0.218986
0.241226
0.240807
0.240344
0.239841
0.239298
0.238716
0.238097
0.237441
0.236748
0.236019
0.235253
0.234452
0.233615
0.232743
0.231836
0.230895
0.22992
0.228913
0.227874
0.255773
0.255474
0.255108
0.25467
0.25416
0.253577
0.252921
0.252195
0.251399
0.250537
0.249609
0.24862
0.247571
0.246464
0.245302
0.244087
0.242821
0.241507
0.240143
0.271429
0.270794
0.270099
0.269347
0.268537
0.267669
0.266742
0.265755
0.264706
0.263595
0.26242
0.26118
0.259875
0.258505
0.257072
0.255576
0.254019
0.252403
0.250732
0.288469
0.288
0.287421
0.286726
0.285915
0.284987
0.283946
0.282794
0.281536
0.280175
0.278715
0.277161
0.275516
0.273783
0.271967
0.27007
0.268096
0.266047
0.263925
0.305649
0.304877
0.304028
0.303096
0.302075
0.30096
0.299743
0.298418
0.296979
0.295422
0.293745
0.291943
0.290018
0.28797
0.285799
0.283511
0.281108
0.278597
0.275985
0.324665
0.324156
0.323479
0.322626
0.321595
0.320387
0.319002
0.317445
0.315718
0.313824
0.311766
0.309547
0.30717
0.30464
0.30196
0.299137
0.296177
0.293085
0.289866
0.342078
0.341556
0.340926
0.340165
0.339248
0.338154
0.336862
0.335354
0.333618
0.331643
0.329423
0.326955
0.32424
0.321282
0.318087
0.314664
0.311025
0.307181
0.303153
0.362017
0.362037
0.361814
0.361329
0.360568
0.359522
0.358181
0.356536
0.354578
0.352299
0.349694
0.346761
0.343502
0.339924
0.336036
0.331854
0.327395
0.32268
0.317729
0.378464
0.379226
0.379814
0.380154
0.380176
0.379824
0.379046
0.377806
0.376076
0.373839
0.371086
0.367816
0.364038
0.359766
0.355019
0.349825
0.344215
0.338226
0.331901
0.398147
0.400095
0.401679
0.402847
0.403548
0.40373
0.403339
0.402325
0.400646
0.39827
0.395177
0.391362
0.386834
0.381615
0.37574
0.369257
0.362223
0.354705
0.34677
0.412561
0.416688
0.420467
0.423705
0.426248
0.427974
0.428783
0.428604
0.427388
0.425106
0.421745
0.417313
0.411836
0.40536
0.397944
0.389665
0.380609
0.370877
0.36058
0.430825
0.437244
0.443063
0.448166
0.452386
0.455547
0.457501
0.458119
0.457309
0.455015
0.451214
0.445913
0.439152
0.430999
0.421552
0.410933
0.399297
0.386814
0.373678
0.441537
0.452477
0.462601
0.471487
0.478858
0.484527
0.48833
0.490162
0.489948
0.48765
0.483262
0.476811
0.46836
0.458004
0.44588
0.432163
0.41706
0.40083
0.383727
0.456073
0.470882
0.484621
0.496938
0.507405
0.51562
0.521346
0.524418
0.524754
0.522322
0.51713
0.509215
0.498649
0.485545
0.47007
0.452451
0.433007
0.412114
0.390285
0.458777
0.481838
0.502788
0.520892
0.535742
0.547205
0.555121
0.559475
0.560271
0.55754
0.551323
0.541664
0.528616
0.512268
0.492762
0.470342
0.445374
0.418413
0.390075
0.463734
0.493128
0.520305
0.543946
0.563351
0.578007
0.58801
0.59344
0.594482
0.591262
0.58386
0.572304
0.556586
0.536678
0.512611
0.484523
0.452806
0.418195
0.38195
0.447232
0.492755
0.53159
0.563445
0.587931
0.605898
0.617665
0.62386
0.62488
0.62101
0.612376
0.598962
0.580608
0.557082
0.528089
0.493491
0.453385
0.408589
0.360797
0.430152
0.487046
0.538212
0.578056
0.608167
0.628847
0.64201
0.648559
0.649323
0.644739
0.634973
0.619919
0.599246
0.572307
0.538422
0.496536
0.446334
0.387725
0.32397
0.361955
0.462676
0.534552
0.586655
0.621633
0.645086
0.659114
0.66579
0.666212
0.660993
0.650316
0.633998
0.611428
0.581666
0.542968
0.493573
0.430454
0.352433
0.260989
0.300821
0.423434
0.527053
0.588297
0.629881
0.654654
0.66949
0.676096
0.676258
0.670587
0.659326
0.642173
0.6184
0.586438
0.5443
0.487373
0.41036
0.300928
0.168042
-0.0221612
0.371914
0.5047
0.58662
0.630858
0.657765
0.673098
0.6799
0.680008
0.674185
0.662658
0.645114
0.620618
0.587678
0.542312
0.483031
0.385829
0.257056
-0.0485765
0.175801
0.175581
0.17532
0.175011
0.174648
0.17422
0.173709
0.173086
0.17233
0.171423
0.170327
0.168976
0.167297
0.165233
0.162755
0.159863
0.15657
0.152892
0.148841
0.144442
0.139751
0.134862
0.129905
0.125037
0.120437
0.116305
0.112827
0.110287
0.108702
0.178782
0.178514
0.178185
0.17778
0.17728
0.17666
0.175894
0.174948
0.173784
0.172398
0.170803
0.169026
0.167077
0.16493
0.162511
0.159714
0.156452
0.152719
0.148542
0.143991
0.139159
0.134161
0.129136
0.124245
0.119656
0.115563
0.112131
0.109649
0.108084
0.181229
0.180927
0.180567
0.180141
0.179639
0.179047
0.178351
0.177535
0.176563
0.17536
0.173846
0.171955
0.169634
0.166886
0.163773
0.160344
0.156581
0.152437
0.147907
0.143049
0.137962
0.132776
0.127641
0.122716
0.118161
0.114148
0.110813
0.108431
0.106921
0.187171
0.18677
0.186281
0.185685
0.184956
0.18407
0.182995
0.181697
0.18017
0.17843
0.176479
0.17429
0.171805
0.16891
0.165479
0.161497
0.157048
0.152222
0.147103
0.141779
0.136353
0.130948
0.125707
0.120773
0.116287
0.112395
0.109197
0.10694
0.105506
0.192057
0.191569
0.190989
0.190304
0.189497
0.188546
0.187425
0.186107
0.184526
0.18261
0.180273
0.177449
0.174143
0.170432
0.166352
0.161851
0.156897
0.151546
0.145916
0.140147
0.134387
0.128782
0.123471
0.118579
0.11421
0.110484
0.107459
0.105348
0.104007
0.200622
0.199958
0.199154
0.198181
0.197005
0.195591
0.193894
0.191873
0.189533
0.186867
0.183879
0.180537
0.176727
0.172331
0.167366
0.161949
0.156202
0.150223
0.144105
0.13797
0.131965
0.126244
0.120939
0.116157
0.111967
0.108456
0.105639
0.103698
0.102465
0.207507
0.206697
0.205735
0.204599
0.203259
0.201678
0.199823
0.197643
0.195046
0.19195
0.188263
0.183969
0.17917
0.173923
0.168166
0.161916
0.155313
0.14855
0.141817
0.135278
0.129073
0.123318
0.118109
0.113517
0.109574
0.106326
0.103753
0.102003
0.100889
0.218054
0.216941
0.215607
0.21401
0.212102
0.209833
0.207141
0.203986
0.200381
0.196337
0.191839
0.186782
0.181045
0.174677
0.167877
0.160792
0.153505
0.146154
0.138947
0.132094
0.125763
0.120059
0.115033
0.11071
0.107075
0.104134
0.101832
0.100291
0.0993046
0.226733
0.225385
0.223781
0.221882
0.219641
0.217006
0.213936
0.210358
0.206156
0.201213
0.195503
0.189146
0.18223
0.174758
0.166849
0.158739
0.150661
0.142801
0.135315
0.12836
0.122077
0.116551
0.111805
0.107821
0.104544
0.10194
0.0999281
0.0986012
0.0977471
0.238632
0.236841
0.234708
0.232175
0.229179
0.225644
0.221481
0.216656
0.211192
0.205128
0.198406
0.190914
0.182725
0.174063
0.165126
0.156095
0.147242
0.13885
0.131128
0.124192
0.118105
0.112889
0.108517
0.104937
0.102055
0.0998064
0.0980915
0.0969795
0.0962568
0.248889
0.246704
0.244104
0.241026
0.2374
0.233167
0.228283
0.222646
0.216134
0.208682
0.200391
0.191424
0.1819
0.172034
0.162109
0.152367
0.143037
0.134365
0.126565
0.11976
0.113976
0.109167
0.105247
0.10212
0.0996595
0.0977756
0.0963548
0.0954546
0.0948597
0.261577
0.258797
0.255492
0.251576
0.246958
0.241516
0.23514
0.227859
0.219749
0.210849
0.201109
0.190623
0.179688
0.168634
0.157766
0.147404
0.137815
0.129169
0.121581
0.115117
0.109769
0.105456
0.102047
0.0994041
0.0973811
0.0958659
0.0947334
0.0940387
0.0935665
0.273092
0.269652
0.265557
0.260714
0.255033
0.248477
0.240996
0.23244
0.222737
0.211986
0.200447
0.188395
0.176141
0.16404
0.152424
0.141613
0.131895
0.12343
0.116248
0.110315
0.105544
0.101812
0.0989567
0.0968177
0.095236
0.0940863
0.0932322
0.0927352
0.0923789
0.286294
0.282049
0.276989
0.270989
0.26392
0.255603
0.245985
0.23524
0.22357
0.21107
0.197857
0.184322
0.170921
0.15804
0.146015
0.13512
0.125563
0.117455
0.110799
0.105497
0.101389
0.0982934
0.0960178
0.0943884
0.0932412
0.0924445
0.0918532
0.0915431
0.0912948
0.298665
0.29331
0.286931
0.279399
0.270636
0.260674
0.24945
0.236871
0.223037
0.208348
0.19331
0.178382
0.164022
0.15062
0.138497
0.127868
0.118819
0.111342
0.105376
0.10079
0.097387
0.0949514
0.0932611
0.092132
0.0914019
0.0909399
0.0905944
0.0904584
0.0903087
0.312205
0.305618
0.297759
0.288491
0.277631
0.265015
0.250851
0.235567
0.219566
0.203078
0.186556
0.170596
0.15566
0.142102
0.130193
0.120078
0.111761
0.105127
0.100017
0.0962429
0.0935813
0.0918109
0.0906972
0.0900497
0.0897127
0.0895637
0.0894479
0.0894739
0.0894123
0.324821
0.31637
0.306331
0.294572
0.281187
0.266348
0.249988
0.232294
0.21381
0.195341
0.177556
0.160978
0.145953
0.132716
0.121414
0.112086
0.104658
0.0989677
0.0947917
0.0918827
0.0899876
0.0888781
0.0883225
0.0881347
0.0881638
0.0883055
0.0884037
0.0885794
0.0885966
0.337917
0.327391
0.314962
0.300524
0.283867
0.265159
0.245219
0.224895
0.204626
0.184886
0.166428
0.149754
0.135113
0.122632
0.112317
0.104064
0.097702
0.0930302
0.0898052
0.0877626
0.0866256
0.0861585
0.0861355
0.08638
0.0867468
0.087157
0.0874524
0.0877648
0.0878536
0.349073
0.335448
0.319454
0.301196
0.281238
0.259917
0.237498
0.214643
0.192466
0.171868
0.153402
0.137262
0.123507
0.112148
0.103084
0.0961026
0.090952
0.0873757
0.0851197
0.0839232
0.0835135
0.0836562
0.0841333
0.0847788
0.0854556
0.0861122
0.0865866
0.0870229
0.0871769
0.359142
0.342104
0.322501
0.30031
0.275625
0.249681
0.224102
0.199789
0.177039
0.156577
0.138859
0.123873
0.111497
0.101599
0.0939686
0.088352
0.0844658
0.0820203
0.0807399
0.0803701
0.0806536
0.0813661
0.0823077
0.0833233
0.0842841
0.0851658
0.0858006
0.0863489
0.0865626
0.364816
0.342805
0.317672
0.290542
0.262735
0.234619
0.207148
0.181578
0.15887
0.139465
0.123268
0.109988
0.0993919
0.0912197
0.0851712
0.0809679
0.0783364
0.0769961
0.0766658
0.0770943
0.0780339
0.0792785
0.0806494
0.0820059
0.083225
0.0843129
0.0850903
0.0857395
0.0860079
0.366452
0.339367
0.309439
0.276842
0.243301
0.211898
0.184134
0.159565
0.138484
0.121144
0.107135
0.0960148
0.0874769
0.0811815
0.0767965
0.0740345
0.0726346
0.0723479
0.0729156
0.0740923
0.0756456
0.0773857
0.0791509
0.0808196
0.0822722
0.0835488
0.0844524
0.085192
0.0855104
0.359217
0.324202
0.286808
0.250398
0.216147
0.185078
0.157759
0.134879
0.116614
0.102226
0.090934
0.0823161
0.0760031
0.071632
0.0689096
0.0675735
0.0673768
0.0680951
0.0694989
0.0713666
0.073486
0.0756818
0.0778053
0.0797581
0.0814203
0.0828672
0.0838827
0.0847031
0.0850664
0.343231
0.301725
0.258253
0.21548
0.17906
0.15049
0.127113
0.108393
0.0941704
0.0832964
0.0750925
0.0691843
0.0651534
0.0626903
0.0615798
0.0616065
0.062555
0.0642233
0.0664074
0.068912
0.0715485
0.0741579
0.076604
0.0788136
0.080662
0.0822609
0.0833759
0.0842679
0.0846712
0.309244
0.254813
0.205942
0.167403
0.137738
0.11319
0.0942879
0.0812577
0.0718731
0.0648652
0.0599807
0.0568281
0.055037
0.0544264
0.0548526
0.0561532
0.0581633
0.0607146
0.0636227
0.0667122
0.0698188
0.0728013
0.0755357
0.0779753
0.0799888
0.0817226
0.0829261
0.0838812
0.0843203
0.2591
0.19482
0.140851
0.107477