/*--------------------------------*- C++ -*----------------------------------*\
  =========                 |
  \\      /  F ield         | OpenFOAM: The Open Source CFD Toolbox
   \\    /   O peration     | Website:  https://openfoam.org
    \\  /    A nd           | Version:  10
     \\/     M anipulation  |
\*---------------------------------------------------------------------------*/
FoamFile
{
    format      ascii;
    class       volVectorField;
    location    "130";
    object      U;
}
// * * * * * * * * * * * * * * * * * * * * * * * * * * * * * * * * * * * * * //

dimensions      [0 1 -1 0 0 0 0];

internalField   nonuniform List<vector> 
66268
(
(1 -5.11901e-05 0)
(1 -0.000187508 0)
(1 -0.000298431 0)
(1 -0.000413778 0)
(1 -0.000525335 0)
(1 -0.000633606 0)
(1 -0.000739156 0)
(1 -0.000841894 0)
(1 -0.000941565 0)
(1 -0.00103789 0)
(1 -0.00113054 0)
(1 -0.00121912 0)
(0.999999 -0.00130321 0)
(0.999999 -0.0013824 0)
(0.999999 -0.00145626 0)
(0.999999 -0.00152438 0)
(0.999999 -0.0015864 0)
(0.999999 -0.001642 0)
(0.999999 -0.00169089 0)
(0.999998 -0.00173288 0)
(0.999998 -0.00176781 0)
(0.999998 -0.00179563 0)
(0.999998 -0.00181631 0)
(0.999998 -0.00182994 0)
(0.999998 -0.00183665 0)
(0.999998 -0.00183663 0)
(0.999997 -0.00183014 0)
(0.999997 -0.00181748 0)
(0.999997 -0.00179898 0)
(0.999997 -0.00177503 0)
(0.999997 -0.00174602 0)
(0.999997 -0.00171237 0)
(0.999997 -0.0016745 0)
(0.999997 -0.00163285 0)
(0.999997 -0.00158788 0)
(0.999997 -0.00154004 0)
(0.999997 -0.00148977 0)
(0.999997 -0.0014375 0)
(0.999997 -0.00138365 0)
(0.999997 -0.00132855 0)
(0.999996 -0.00127251 0)
(0.999996 -0.00121579 0)
(0.999996 -0.00115859 0)
(0.999995 -0.00110108 0)
(0.999994 -0.00104344 0)
(0.999993 -0.000985812 0)
(0.999991 -0.000928381 0)
(0.999988 -0.000871337 0)
(0.999984 -0.000814901 0)
(0.999978 -0.000759323 0)
(0.999971 -0.000704866 0)
(0.999963 -0.000651777 0)
(0.999956 -0.000600247 0)
(0.999951 -0.000550394 0)
(0.999947 -0.000502259 0)
(0.999946 -0.000455833 0)
(0.999948 -0.000411079 0)
(0.99995 -0.000367959 0)
(0.999954 -0.000326443 0)
(0.999958 -0.000286513 0)
(0.999963 -0.000248159 0)
(0.999967 -0.000211372 0)
(0.99997 -0.00017614 0)
(0.999973 -0.000142447 0)
(0.999976 -0.00011027 0)
(0.999978 -7.95758e-05 0)
(0.99998 -5.03265e-05 0)
(0.999981 -2.25214e-05 0)
(0.999982 3.83419e-06 0)
(1.00022 -0.0001539 0)
(1.00022 -0.000555397 0)
(1.00022 -0.000881852 0)
(1.00023 -0.00122549 0)
(1.00023 -0.00155729 0)
(1.00023 -0.00188002 0)
(1.00023 -0.00219595 0)
(1.00023 -0.00250461 0)
(1.00024 -0.0028053 0)
(1.00024 -0.0030973 0)
(1.00023 -0.00337962 0)
(1.00023 -0.00365111 0)
(1.00023 -0.00391055 0)
(1.00022 -0.00415663 0)
(1.00021 -0.00438808 0)
(1.0002 -0.00460362 0)
(1.00019 -0.0048021 0)
(1.00018 -0.00498246 0)
(1.00016 -0.00514381 0)
(1.00014 -0.00528541 0)
(1.00012 -0.00540672 0)
(1.0001 -0.00550743 0)
(1.00007 -0.0055874 0)
(1.00005 -0.00564672 0)
(1.00002 -0.00568567 0)
(0.999988 -0.00570472 0)
(0.999958 -0.00570451 0)
(0.999927 -0.00568584 0)
(0.999894 -0.00564965 0)
(0.999862 -0.00559698 0)
(0.999829 -0.005529 0)
(0.999796 -0.00544693 0)
(0.999763 -0.00535205 0)
(0.99973 -0.00524564 0)
(0.999698 -0.00512897 0)
(0.999666 -0.00500323 0)
(0.999635 -0.00486956 0)
(0.999605 -0.00472905 0)
(0.999575 -0.00458274 0)
(0.999547 -0.00443167 0)
(0.999519 -0.00427685 0)
(0.999492 -0.00411933 0)
(0.999466 -0.00396013 0)
(0.999441 -0.00380021 0)
(0.999417 -0.00364048 0)
(0.999394 -0.00348171 0)
(0.999372 -0.00332452 0)
(0.999353 -0.0031694 0)
(0.999336 -0.00301666 0)
(0.999322 -0.00286649 0)
(0.999312 -0.00271896 0)
(0.999304 -0.00257413 0)
(0.999298 -0.00243211 0)
(0.999291 -0.00229308 0)
(0.999282 -0.00215731 0)
(0.999272 -0.00202508 0)
(0.999259 -0.00189668 0)
(0.999245 -0.00177229 0)
(0.99923 -0.00165205 0)
(0.999216 -0.00153598 0)
(0.999202 -0.00142409 0)
(0.999189 -0.00131634 0)
(0.999177 -0.00121266 0)
(0.999166 -0.00111299 0)
(0.999157 -0.00101726 0)
(0.999148 -0.000925392 0)
(0.999141 -0.00083731 0)
(0.999134 -0.000752962 0)
(0.999128 -0.000672396 0)
(1.00067 -0.000254815 0)
(1.00067 -0.000906933 0)
(1.00068 -0.0014376 0)
(1.00069 -0.00200287 0)
(1.00069 -0.00254702 0)
(1.0007 -0.00307798 0)
(1.00071 -0.00359992 0)
(1.00072 -0.00411167 0)
(1.00073 -0.00461239 0)
(1.00073 -0.005101 0)
(1.00073 -0.00557593 0)
(1.00073 -0.00603536 0)
(1.00072 -0.00647725 0)
(1.0007 -0.00689945 0)
(1.00068 -0.00729978 0)
(1.00066 -0.00767609 0)
(1.00063 -0.00802634 0)
(1.00059 -0.00834864 0)
(1.00054 -0.00864134 0)
(1.00049 -0.00890304 0)
(1.00043 -0.00913264 0)
(1.00037 -0.00932938 0)
(1.00029 -0.00949282 0)
(1.00022 -0.00962287 0)
(1.00014 -0.00971975 0)
(1.00005 -0.00978403 0)
(0.999966 -0.00981656 0)
(0.999875 -0.00981848 0)
(0.999782 -0.00979115 0)
(0.999688 -0.00973612 0)
(0.999593 -0.00965511 0)
(0.999497 -0.00954995 0)
(0.999402 -0.00942255 0)
(0.999308 -0.00927486 0)
(0.999216 -0.00910887 0)
(0.999126 -0.00892657 0)
(0.999038 -0.00872998 0)
(0.998952 -0.00852109 0)
(0.99887 -0.00830188 0)
(0.99879 -0.0080742 0)
(0.998713 -0.00783977 0)
(0.998639 -0.00760011 0)
(0.998569 -0.00735654 0)
(0.998502 -0.00711023 0)
(0.998438 -0.0068622 0)
(0.998377 -0.00661337 0)
(0.998319 -0.00636467 0)
(0.998262 -0.00611697 0)
(0.998207 -0.00587121 0)
(0.998152 -0.00562835 0)
(0.998098 -0.00538934 0)
(0.998045 -0.005155 0)
(0.997995 -0.00492602 0)
(0.99795 -0.00470281 0)
(0.997911 -0.00448559 0)
(0.997879 -0.00427443 0)
(0.997853 -0.00406935 0)
(0.997832 -0.00387037 0)
(0.997815 -0.00367755 0)
(0.997801 -0.00349097 0)
(0.997788 -0.00331072 0)
(0.997776 -0.00313689 0)
(0.997765 -0.00296953 0)
(0.997754 -0.00280866 0)
(0.997744 -0.00265425 0)
(0.997734 -0.00250625 0)
(0.997724 -0.00236458 0)
(0.997715 -0.0022292 0)
(0.997706 -0.00210002 0)
(1.00128 -0.000350581 0)
(1.00128 -0.00123647 0)
(1.0013 -0.00196104 0)
(1.00132 -0.00273776 0)
(1.00133 -0.00348361 0)
(1.00136 -0.00421485 0)
(1.00138 -0.00493634 0)
(1.0014 -0.00564638 0)
(1.00141 -0.00634434 0)
(1.00142 -0.00702885 0)
(1.00143 -0.00769787 0)
(1.00143 -0.00834897 0)
(1.00142 -0.00897936 0)
(1.0014 -0.00958608 0)
(1.00137 -0.010166 0)
(1.00133 -0.0107161 0)
(1.00127 -0.0112334 0)
(1.0012 -0.0117149 0)
(1.00112 -0.0121582 0)
(1.00103 -0.012561 0)
(1.00093 -0.0129215 0)
(1.00081 -0.0132383 0)
(1.00068 -0.0135103 0)
(1.00054 -0.0137371 0)
(1.00039 -0.0139186 0)
(1.00024 -0.0140552 0)
(1.00007 -0.0141477 0)
(0.999906 -0.0141973 0)
(0.999732 -0.0142056 0)
(0.999555 -0.0141744 0)
(0.999377 -0.0141058 0)
(0.999198 -0.0140022 0)
(0.999019 -0.0138661 0)
(0.998842 -0.0137001 0)
(0.998667 -0.0135071 0)
(0.998495 -0.0132896 0)
(0.998327 -0.0130505 0)
(0.998164 -0.0127923 0)
(0.998006 -0.0125175 0)
(0.997853 -0.0122285 0)
(0.997706 -0.0119275 0)
(0.997565 -0.0116167 0)
(0.997431 -0.0112982 0)
(0.997303 -0.0109742 0)
(0.997181 -0.0106465 0)
(0.997065 -0.0103172 0)
(0.996956 -0.00998771 0)
(0.996855 -0.0096596 0)
(0.996762 -0.00933396 0)
(0.996679 -0.00901166 0)
(0.996605 -0.00869338 0)
(0.996539 -0.00837963 0)
(0.996478 -0.00807099 0)
(0.996421 -0.00776813 0)
(0.996364 -0.00747181 0)
(0.996307 -0.0071828 0)
(0.996248 -0.00690178 0)
(0.99619 -0.00662924 0)
(0.996133 -0.00636552 0)
(0.996079 -0.00611074 0)
(0.996028 -0.00586495 0)
(0.995981 -0.00562811 0)
(0.995938 -0.00540013 0)
(0.995898 -0.00518091 0)
(0.995862 -0.00497033 0)
(0.995829 -0.00476826 0)
(0.995799 -0.00457455 0)
(0.995772 -0.0043891 0)
(0.995747 -0.00421186 0)
(1.00199 -0.000438674 0)
(1.002 -0.0015394 0)
(1.00203 -0.00244662 0)
(1.00206 -0.00342072 0)
(1.00209 -0.004355 0)
(1.00213 -0.00527591 0)
(1.00217 -0.00618745 0)
(1.0022 -0.00708798 0)
(1.00224 -0.00797728 0)
(1.00226 -0.00885377 0)
(1.00228 -0.0097151 0)
(1.00229 -0.0105583 0)
(1.00228 -0.0113799 0)
(1.00226 -0.0121763 0)
(1.00222 -0.0129433 0)
(1.00216 -0.013677 0)
(1.00209 -0.0143733 0)
(1.002 -0.0150285 0)
(1.00188 -0.0156388 0)
(1.00174 -0.0162011 0)
(1.00159 -0.0167126 0)
(1.00142 -0.017171 0)
(1.00122 -0.0175745 0)
(1.00101 -0.017922 0)
(1.00079 -0.0182128 0)
(1.00055 -0.018447 0)
(1.0003 -0.018625 0)
(1.00004 -0.018748 0)
(0.999767 -0.0188175 0)
(0.999491 -0.0188356 0)
(0.999212 -0.0188045 0)
(0.99893 -0.0187271 0)
(0.998647 -0.0186063 0)
(0.998366 -0.0184453 0)
(0.998088 -0.0182473 0)
(0.997814 -0.0180155 0)
(0.997545 -0.0177534 0)
(0.997283 -0.0174642 0)
(0.997029 -0.0171512 0)
(0.996783 -0.0168177 0)
(0.996546 -0.0164669 0)
(0.996318 -0.0161018 0)
(0.996099 -0.0157252 0)
(0.99589 -0.0153397 0)
(0.99569 -0.0149474 0)
(0.995499 -0.0145505 0)
(0.995317 -0.0141508 0)
(0.995143 -0.0137502 0)
(0.994974 -0.0133503 0)
(0.99481 -0.0129529 0)
(0.994651 -0.0125597 0)
(0.994497 -0.0121723 0)
(0.99435 -0.0117919 0)
(0.994215 -0.0114194 0)
(0.994094 -0.0110552 0)
(0.993987 -0.0106996 0)
(0.993894 -0.0103527 0)
(0.993812 -0.0100149 0)
(0.993739 -0.00968617 0)
(0.993673 -0.00936702 0)
(0.993612 -0.00905772 0)
(0.993555 -0.00875854 0)
(0.993501 -0.00846969 0)
(0.99345 -0.00819129 0)
(0.993403 -0.00792343 0)
(0.993358 -0.00766607 0)
(0.993316 -0.00741916 0)
(0.993276 -0.00718266 0)
(0.993239 -0.00695648 0)
(1.0028 -0.000518224 0)
(1.00281 -0.00181259 0)
(1.00285 -0.00288764 0)
(1.00289 -0.00404182 0)
(1.00295 -0.00514877 0)
(1.00301 -0.0062455 0)
(1.00307 -0.00733423 0)
(1.00313 -0.00841402 0)
(1.00318 -0.00948508 0)
(1.00323 -0.0105458 0)
(1.00327 -0.0115936 0)
(1.00329 -0.0126252 0)
(1.00329 -0.0136366 0)
(1.00328 -0.0146233 0)
(1.00324 -0.0155806 0)
(1.00317 -0.0165033 0)
(1.00308 -0.0173866 0)
(1.00297 -0.0182254 0)
(1.00282 -0.0190151 0)
(1.00264 -0.0197513 0)
(1.00244 -0.0204301 0)
(1.0022 -0.0210483 0)
(1.00194 -0.021603 0)
(1.00166 -0.0220922 0)
(1.00135 -0.0225145 0)
(1.00102 -0.0228693 0)
(1.00067 -0.0231565 0)
(1.00031 -0.023377 0)
(0.999927 -0.0235319 0)
(0.999538 -0.0236233 0)
(0.999141 -0.0236535 0)
(0.998739 -0.0236253 0)
(0.998335 -0.0235419 0)
(0.997931 -0.0234068 0)
(0.997529 -0.0232236 0)
(0.997133 -0.0229963 0)
(0.996743 -0.0227288 0)
(0.996361 -0.0224252 0)
(0.995988 -0.0220895 0)
(0.995626 -0.0217254 0)
(0.995276 -0.0213369 0)
(0.994938 -0.0209274 0)
(0.994612 -0.0205003 0)
(0.9943 -0.0200591 0)
(0.994002 -0.019607 0)
(0.993717 -0.0191471 0)
(0.993447 -0.0186821 0)
(0.993193 -0.0182148 0)
(0.992956 -0.0177472 0)
(0.992738 -0.0172813 0)
(0.992539 -0.0168182 0)
(0.992358 -0.0163593 0)
(0.99219 -0.0159056 0)
(0.99203 -0.0154583 0)
(0.991875 -0.0150187 0)
(0.991722 -0.0145882 0)
(0.991572 -0.014168 0)
(0.991426 -0.013759 0)
(0.991286 -0.0133618 0)
(0.991154 -0.0129768 0)
(0.991031 -0.0126042 0)
(0.990917 -0.0122441 0)
(0.990812 -0.0118965 0)
(0.990716 -0.0115614 0)
(0.990627 -0.0112387 0)
(0.990546 -0.0109285 0)
(0.990472 -0.0106306 0)
(0.990403 -0.0103448 0)
(0.99034 -0.0100713 0)
(1.00367 -0.000588548 0)
(1.0037 -0.00205232 0)
(1.00375 -0.00327578 0)
(1.00381 -0.00458932 0)
(1.00389 -0.00585004 0)
(1.00397 -0.00710499 0)
(1.00406 -0.00835433 0)
(1.00416 -0.00959823 0)
(1.00424 -0.0108374 0)
(1.00432 -0.0120704 0)
(1.00438 -0.0132946 0)
(1.00443 -0.0145064 0)
(1.00446 -0.0157015 0)
(1.00446 -0.0168748 0)
(1.00443 -0.0180208 0)
(1.00436 -0.0191336 0)
(1.00427 -0.0202072 0)
(1.00413 -0.0212356 0)
(1.00396 -0.022213 0)
(1.00375 -0.0231339 0)
(1.0035 -0.023993 0)
(1.00321 -0.024786 0)
(1.00288 -0.0255088 0)
(1.00252 -0.0261584 0)
(1.00213 -0.0267323 0)
(1.0017 -0.027229 0)
(1.00124 -0.0276477 0)
(1.00077 -0.0279884 0)
(1.00027 -0.0282519 0)
(0.999752 -0.0284398 0)
(0.999223 -0.0285542 0)
(0.998686 -0.0285979 0)
(0.998142 -0.0285742 0)
(0.997597 -0.028487 0)
(0.997053 -0.0283402 0)
(0.996513 -0.0281384 0)
(0.995979 -0.0278859 0)
(0.995456 -0.0275875 0)
(0.994943 -0.0272477 0)
(0.994444 -0.0268711 0)
(0.99396 -0.0264623 0)
(0.993493 -0.0260257 0)
(0.993042 -0.0255655 0)
(0.99261 -0.0250858 0)
(0.992196 -0.02459 0)
(0.991801 -0.0240815 0)
(0.991423 -0.0235633 0)
(0.991063 -0.0230384 0)
(0.990717 -0.0225093 0)
(0.990383 -0.0219788 0)
(0.99006 -0.0214495 0)
(0.989749 -0.0209238 0)
(0.989454 -0.0204038 0)
(0.989179 -0.0198913 0)
(0.988928 -0.0193873 0)
(0.988701 -0.0188926 0)
(0.988499 -0.018408 0)
(0.988317 -0.0179339 0)
(0.988151 -0.0174712 0)
(0.987998 -0.0170205 0)
(0.987855 -0.0165826 0)
(0.987721 -0.0161579 0)
(0.987595 -0.015747 0)
(0.987476 -0.0153501 0)
(0.987363 -0.0149674 0)
(0.987258 -0.0145991 0)
(0.98716 -0.0142451 0)
(0.987067 -0.0139054 0)
(0.986981 -0.0135801 0)
(1.0046 -0.00064893 0)
(1.00463 -0.00225542 0)
(1.0047 -0.00360439 0)
(1.00478 -0.00505386 0)
(1.00489 -0.00644683 0)
(1.00501 -0.00783933 0)
(1.00514 -0.00922959 0)
(1.00527 -0.0106192 0)
(1.00539 -0.0120094 0)
(1.00551 -0.0133991 0)
(1.00561 -0.0147858 0)
(1.00569 -0.0161658 0)
(1.00575 -0.0175346 0)
(1.00578 -0.0188867 0)
(1.00577 -0.020216 0)
(1.00572 -0.0215159 0)
(1.00563 -0.0227796 0)
(1.00549 -0.0239999 0)
(1.0053 -0.0251699 0)
(1.00506 -0.0262828 0)
(1.00477 -0.0273324 0)
(1.00443 -0.0283126 0)
(1.00404 -0.0292183 0)
(1.0036 -0.030045 0)
(1.00312 -0.030789 0)
(1.0026 -0.0314477 0)
(1.00204 -0.0320191 0)
(1.00144 -0.0325023 0)
(1.00081 -0.0328974 0)
(1.00016 -0.0332053 0)
(0.999489 -0.0334276 0)
(0.998802 -0.0335669 0)
(0.998105 -0.0336263 0)
(0.997402 -0.0336094 0)
(0.996698 -0.0335206 0)
(0.995997 -0.0333641 0)
(0.995303 -0.0331448 0)
(0.994619 -0.0328677 0)
(0.993948 -0.0325378 0)
(0.993293 -0.0321604 0)
(0.992656 -0.0317404 0)
(0.992038 -0.0312828 0)
(0.991442 -0.0307926 0)
(0.990867 -0.0302744 0)
(0.990316 -0.0297331 0)
(0.989789 -0.0291732 0)
(0.989286 -0.0285991 0)
(0.98881 -0.0280151 0)
(0.988361 -0.0274247 0)
(0.987943 -0.0268314 0)
(0.987556 -0.0262377 0)
(0.987197 -0.0256457 0)
(0.986862 -0.0250575 0)
(0.986544 -0.0244747 0)
(0.986237 -0.0238994 0)
(0.985938 -0.0233334 0)
(0.985647 -0.0227785 0)
(0.985366 -0.0222359 0)
(0.985099 -0.0217069 0)
(0.984848 -0.021192 0)
(0.984615 -0.0206918 0)
(0.984398 -0.0202066 0)
(0.984199 -0.0197368 0)
(0.984015 -0.0192825 0)
(0.983845 -0.018844 0)
(0.983688 -0.0184212 0)
(0.983543 -0.0180144 0)
(0.983409 -0.0176234 0)
(0.983285 -0.0172483 0)
(1.00556 -0.000699228 0)
(1.0056 -0.00242171 0)
(1.00569 -0.00387287 0)
(1.0058 -0.00543465 0)
(1.00593 -0.00693783 0)
(1.00609 -0.00844636 0)
(1.00626 -0.0099569 0)
(1.00644 -0.0114726 0)
(1.00661 -0.0129954 0)
(1.00677 -0.0145244 0)
(1.00692 -0.0160577 0)
(1.00705 -0.0175916 0)
(1.00715 -0.0191217 0)
(1.00721 -0.0206422 0)
(1.00724 -0.0221466 0)
(1.00721 -0.0236278 0)
(1.00713 -0.0250781 0)
(1.007 -0.0264894 0)
(1.0068 -0.0278539 0)
(1.00655 -0.0291636 0)
(1.00623 -0.0304106 0)
(1.00585 -0.0315878 0)
(1.0054 -0.0326885 0)
(1.0049 -0.0337068 0)
(1.00433 -0.0346374 0)
(1.00371 -0.0354764 0)
(1.00304 -0.0362204 0)
(1.00232 -0.0368673 0)
(1.00157 -0.0374162 0)
(1.00077 -0.0378668 0)
(0.999953 -0.0382201 0)
(0.999109 -0.0384779 0)
(0.998248 -0.0386429 0)
(0.997376 -0.0387184 0)
(0.996499 -0.0387085 0)
(0.995622 -0.038618 0)
(0.99475 -0.0384519 0)
(0.993887 -0.0382158 0)
(0.993038 -0.0379155 0)
(0.992206 -0.0375569 0)
(0.991394 -0.0371459 0)
(0.990605 -0.0366886 0)
(0.989841 -0.0361908 0)
(0.989103 -0.0356582 0)
(0.988394 -0.0350959 0)
(0.987715 -0.0345088 0)
(0.987064 -0.0339014 0)
(0.986442 -0.0332776 0)
(0.985847 -0.0326411 0)
(0.985275 -0.0319955 0)
(0.984725 -0.0313443 0)
(0.984196 -0.0306909 0)
(0.983693 -0.0300388 0)
(0.98322 -0.0293907 0)
(0.982784 -0.0287491 0)
(0.982386 -0.0281157 0)
(0.982023 -0.027492 0)
(0.981692 -0.0268795 0)
(0.981386 -0.0262795 0)
(0.981102 -0.0256932 0)
(0.980835 -0.0251219 0)
(0.980584 -0.0245663 0)
(0.980347 -0.0240274 0)
(0.980124 -0.0235057 0)
(0.979915 -0.0230015 0)
(0.979718 -0.0225152 0)
(0.979534 -0.0220469 0)
(0.979363 -0.0215967 0)
(0.979202 -0.0211647 0)
(1.00654 -0.000740182 0)
(1.00659 -0.00255487 0)
(1.0067 -0.00408785 0)
(1.00683 -0.0057408 0)
(1.00701 -0.00733414 0)
(1.00721 -0.00893894 0)
(1.00742 -0.0105507 0)
(1.00765 -0.012174 0)
(1.00788 -0.0138114 0)
(1.0081 -0.0154629 0)
(1.0083 -0.0171268 0)
(1.00848 -0.0188 0)
(1.00863 -0.0204781 0)
(1.00874 -0.0221553 0)
(1.00881 -0.0238249 0)
(1.00882 -0.0254795 0)
(1.00877 -0.0271107 0)
(1.00865 -0.0287098 0)
(1.00846 -0.0302678 0)
(1.0082 -0.0317757 0)
(1.00787 -0.0332243 0)
(1.00745 -0.0346052 0)
(1.00696 -0.03591 0)
(1.0064 -0.0371312 0)
(1.00576 -0.0382622 0)
(1.00505 -0.039297 0)
(1.00427 -0.0402311 0)
(1.00344 -0.0410607 0)
(1.00255 -0.0417833 0)
(1.00162 -0.0423975 0)
(1.00064 -0.0429033 0)
(0.999635 -0.0433014 0)
(0.998602 -0.0435938 0)
(0.99755 -0.0437835 0)
(0.996488 -0.0438744 0)
(0.99542 -0.0438708 0)
(0.994355 -0.0437779 0)
(0.993297 -0.0436013 0)
(0.992252 -0.0433468 0)
(0.991225 -0.0430205 0)
(0.99022 -0.0426287 0)
(0.989241 -0.0421776 0)
(0.988291 -0.0416734 0)
(0.987372 -0.0411222 0)
(0.986486 -0.0405303 0)
(0.985635 -0.0399037 0)
(0.984821 -0.0392486 0)
(0.984044 -0.0385709 0)
(0.983307 -0.0378763 0)
(0.982613 -0.03717 0)
(0.981962 -0.0364565 0)
(0.981354 -0.0357394 0)
(0.980783 -0.0350219 0)
(0.980242 -0.0343066 0)
(0.979722 -0.0335961 0)
(0.979219 -0.0328931 0)
(0.978735 -0.0321999 0)
(0.97827 -0.0315187 0)
(0.97783 -0.0308512 0)
(0.977416 -0.0301986 0)
(0.977031 -0.029562 0)
(0.976673 -0.0289424 0)
(0.97634 -0.0283403 0)
(0.976033 -0.0277565 0)
(0.975748 -0.0271913 0)
(0.975483 -0.0266452 0)
(0.975238 -0.0261184 0)
(0.97501 -0.0256111 0)
(0.974798 -0.0251236 0)
(1.00752 -0.000773397 0)
(1.00758 -0.00266145 0)
(1.00771 -0.00426061 0)
(1.00787 -0.00598778 0)
(1.00809 -0.00765489 0)
(1.00833 -0.00933964 0)
(1.0086 -0.0110365 0)
(1.00888 -0.0127515 0)
(1.00917 -0.0144879 0)
(1.00945 -0.0162466 0)
(1.00972 -0.0180264 0)
(1.00996 -0.0198249 0)
(1.01017 -0.0216378 0)
(1.01034 -0.0234597 0)
(1.01046 -0.0252839 0)
(1.01052 -0.0271026 0)
(1.01051 -0.0289073 0)
(1.01042 -0.0306885 0)
(1.01026 -0.0324366 0)
(1.01001 -0.0341414 0)
(1.00967 -0.0357928 0)
(1.00924 -0.0373807 0)
(1.00871 -0.0388954 0)
(1.0081 -0.0403278 0)
(1.0074 -0.0416695 0)
(1.00661 -0.0429129 0)
(1.00574 -0.0440515 0)
(1.00479 -0.0450799 0)
(1.00378 -0.045994 0)
(1.00271 -0.0467909 0)
(1.00158 -0.0474691 0)
(1.0004 -0.0480282 0)
(0.99919 -0.0484692 0)
(0.997951 -0.0487942 0)
(0.996692 -0.0490063 0)
(0.995422 -0.0491095 0)
(0.994149 -0.0491087 0)
(0.99288 -0.0490096 0)
(0.991622 -0.0488183 0)
(0.99038 -0.0485417 0)
(0.989161 -0.0481869 0)
(0.987969 -0.0477612 0)
(0.986808 -0.0472722 0)
(0.985682 -0.0467271 0)
(0.984594 -0.0461333 0)
(0.983545 -0.0454972 0)
(0.982538 -0.0448252 0)
(0.981573 -0.0441227 0)
(0.980649 -0.0433947 0)
(0.979763 -0.042646 0)
(0.978912 -0.0418811 0)
(0.978096 -0.0411048 0)
(0.977317 -0.0403219 0)
(0.976582 -0.0395368 0)
(0.975897 -0.0387536 0)
(0.975264 -0.0379755 0)
(0.974681 -0.0372052 0)
(0.974143 -0.0364451 0)
(0.973642 -0.0356974 0)
(0.973174 -0.034964 0)
(0.972734 -0.0342467 0)
(0.972319 -0.033547 0)
(0.971929 -0.0328663 0)
(0.971562 -0.0322053 0)
(0.971217 -0.0315651 0)
(0.970894 -0.030946 0)
(0.970592 -0.0303484 0)
(0.97031 -0.0297729 0)
(0.970046 -0.0292195 0)
(1.00848 -0.000801001 0)
(1.00855 -0.002749 0)
(1.0087 -0.00440331 0)
(1.0089 -0.00619226 0)
(1.00915 -0.00792092 0)
(1.00944 -0.00967315 0)
(1.00977 -0.0114425 0)
(1.01011 -0.0132363 0)
(1.01046 -0.0150588 0)
(1.01081 -0.0169115 0)
(1.01115 -0.0187943 0)
(1.01146 -0.0207051 0)
(1.01174 -0.0226404 0)
(1.01198 -0.0245951 0)
(1.01216 -0.0265626 0)
(1.01228 -0.0285354 0)
(1.01233 -0.0305046 0)
(1.01229 -0.0324607 0)
(1.01216 -0.0343931 0)
(1.01193 -0.036291 0)
(1.01161 -0.0381433 0)
(1.01117 -0.0399387 0)
(1.01064 -0.0416661 0)
(1.00999 -0.0433147 0)
(1.00924 -0.0448745 0)
(1.00838 -0.046336 0)
(1.00743 -0.0476909 0)
(1.00638 -0.048932 0)
(1.00525 -0.0500532 0)
(1.00404 -0.0510499 0)
(1.00275 -0.0519189 0)
(1.00141 -0.0526583 0)
(1.00002 -0.0532677 0)
(0.998589 -0.0537479 0)
(0.997127 -0.0541012 0)
(0.995645 -0.054331 0)
(0.994152 -0.0544417 0)
(0.992657 -0.0544388 0)
(0.991169 -0.0543283 0)
(0.989696 -0.054117 0)
(0.988245 -0.053812 0)
(0.986822 -0.0534204 0)
(0.985433 -0.0529497 0)
(0.984082 -0.0524074 0)
(0.982774 -0.051801 0)
(0.981512 -0.0511381 0)
(0.980298 -0.0504265 0)
(0.979135 -0.0496741 0)
(0.978024 -0.0488888 0)
(0.976969 -0.0480779 0)
(0.975971 -0.0472484 0)
(0.975032 -0.0464059 0)
(0.974146 -0.0455554 0)
(0.973308 -0.0447008 0)
(0.972507 -0.0438457 0)
(0.971737 -0.0429937 0)
(0.970998 -0.0421483 0)
(0.970292 -0.0413127 0)
(0.969624 -0.0404897 0)
(0.968996 -0.0396814 0)
(0.968408 -0.0388896 0)
(0.967861 -0.038116 0)
(0.967352 -0.0373619 0)
(0.966878 -0.0366284 0)
(0.966437 -0.0359165 0)
(0.966027 -0.0352268 0)
(0.965645 -0.0345601 0)
(0.96529 -0.0339167 0)
(0.964959 -0.0332973 0)
(1.00941 -0.000825 0)
(1.0095 -0.00282409 0)
(1.00967 -0.00452616 0)
(1.00991 -0.00636831 0)
(1.0102 -0.00814987 0)
(1.01054 -0.00996046 0)
(1.01092 -0.0117927 0)
(1.01132 -0.0136552 0)
(1.01174 -0.015553 0)
(1.01216 -0.0174888 0)
(1.01258 -0.0194631 0)
(1.01297 -0.0214746 0)
(1.01333 -0.0235206 0)
(1.01364 -0.0255964 0)
(1.0139 -0.0276961 0)
(1.01409 -0.0298122 0)
(1.0142 -0.0319361 0)
(1.01422 -0.034058 0)
(1.01415 -0.0361673 0)
(1.01396 -0.0382524 0)
(1.01366 -0.0403015 0)
(1.01325 -0.0423022 0)
(1.01271 -0.0442422 0)
(1.01204 -0.0461093 0)
(1.01126 -0.0478918 0)
(1.01035 -0.0495784 0)
(1.00932 -0.051159 0)
(1.00819 -0.0526243 0)
(1.00694 -0.0539663 0)
(1.0056 -0.0551783 0)
(1.00418 -0.0562552 0)
(1.00267 -0.0571932 0)
(1.0011 -0.0579902 0)
(0.999474 -0.0586457 0)
(0.997804 -0.0591607 0)
(0.996102 -0.0595375 0)
(0.99438 -0.0597796 0)
(0.992648 -0.059892 0)
(0.990916 -0.0598803 0)
(0.989195 -0.0597513 0)
(0.987493 -0.0595126 0)
(0.985818 -0.0591722 0)
(0.984177 -0.0587391 0)
(0.982575 -0.0582221 0)
(0.981019 -0.0576304 0)
(0.979512 -0.0569729 0)
(0.978058 -0.056258 0)
(0.976658 -0.0554931 0)
(0.975315 -0.0546852 0)
(0.974026 -0.0538404 0)
(0.972789 -0.0529649 0)
(0.971603 -0.0520646 0)
(0.970469 -0.0511461 0)
(0.969393 -0.0502157 0)
(0.968382 -0.0492795 0)
(0.96744 -0.0483426 0)
(0.966565 -0.0474092 0)
(0.965753 -0.0464831 0)
(0.964994 -0.0455674 0)
(0.964282 -0.0446653 0)
(0.963612 -0.0437794 0)
(0.962981 -0.042912 0)
(0.962387 -0.0420652 0)
(0.961829 -0.0412406 0)
(0.961306 -0.0404396 0)
(0.960815 -0.0396631 0)
(0.960355 -0.0389119 0)
(0.959926 -0.0381868 0)
(0.959525 -0.0374883 0)
(1.01033 -0.000846779 0)
(1.01043 -0.0028912 0)
(1.01063 -0.004636 0)
(1.01089 -0.00652543 0)
(1.01122 -0.00835371 0)
(1.01162 -0.0102159 0)
(1.01205 -0.0121036 0)
(1.01252 -0.0140266 0)
(1.01301 -0.015991 0)
(1.01351 -0.0180003 0)
(1.014 -0.0200559 0)
(1.01447 -0.0221576 0)
(1.01492 -0.0243032 0)
(1.01532 -0.026489 0)
(1.01566 -0.0287096 0)
(1.01593 -0.0309581 0)
(1.01612 -0.0332262 0)
(1.01622 -0.0355042 0)
(1.0162 -0.0377815 0)
(1.01607 -0.0400464 0)
(1.01582 -0.0422862 0)
(1.01543 -0.0444881 0)
(1.01491 -0.0466387 0)
(1.01425 -0.0487245 0)
(1.01344 -0.0507322 0)
(1.0125 -0.052649 0)
(1.01142 -0.0544628 0)
(1.01021 -0.0561624 0)
(1.00887 -0.0577374 0)
(1.00741 -0.0591793 0)
(1.00584 -0.0604806 0)
(1.00418 -0.0616356 0)
(1.00244 -0.0626403 0)
(1.00062 -0.0634922 0)
(0.998736 -0.0641906 0)
(0.99681 -0.0647365 0)
(0.994851 -0.0651323 0)
(0.992871 -0.065382 0)
(0.990883 -0.0654908 0)
(0.988899 -0.0654651 0)
(0.986928 -0.0653123 0)
(0.984982 -0.0650402 0)
(0.983069 -0.0646573 0)
(0.981198 -0.064172 0)
(0.979375 -0.0635932 0)
(0.977607 -0.0629297 0)
(0.975897 -0.0621908 0)
(0.974251 -0.0613861 0)
(0.97267 -0.0605256 0)
(0.971159 -0.0596194 0)
(0.969722 -0.0586771 0)
(0.968359 -0.0577072 0)
(0.967071 -0.0567172 0)
(0.96585 -0.0557128 0)
(0.964687 -0.0546994 0)
(0.963574 -0.0536818 0)
(0.962508 -0.052665 0)
(0.961492 -0.0516535 0)
(0.960529 -0.0506517 0)
(0.959622 -0.0496629 0)
(0.958773 -0.0486902 0)
(0.957979 -0.047736 0)
(0.957239 -0.0468025 0)
(0.956548 -0.0458916 0)
(0.955904 -0.045005 0)
(0.955303 -0.0441439 0)
(0.954743 -0.0433095 0)
(0.954221 -0.0425027 0)
(0.953734 -0.0417244 0)
(1.01122 -0.00086705 0)
(1.01133 -0.00295263 0)
(1.01155 -0.00473648 0)
(1.01185 -0.00666873 0)
(1.01222 -0.00853892 0)
(1.01267 -0.0104472 0)
(1.01316 -0.0123843 0)
(1.01369 -0.0143609 0)
(1.01426 -0.0163843 0)
(1.01483 -0.0184587 0)
(1.01541 -0.0205865 0)
(1.01597 -0.0227685 0)
(1.0165 -0.0250035 0)
(1.017 -0.0272886 0)
(1.01743 -0.0296192 0)
(1.01779 -0.0319891 0)
(1.01807 -0.0343906 0)
(1.01825 -0.0368145 0)
(1.01831 -0.0392504 0)
(1.01825 -0.0416866 0)
(1.01805 -0.0441103 0)
(1.01772 -0.046508 0)
(1.01723 -0.0488657 0)
(1.01658 -0.051169 0)
(1.01578 -0.0534031 0)
(1.01482 -0.0555539 0)
(1.0137 -0.0576072 0)
(1.01243 -0.0595501 0)
(1.01101 -0.0613701 0)
(1.00945 -0.0630563 0)
(1.00776 -0.064599 0)
(1.00595 -0.0659903 0)
(1.00403 -0.0672236 0)
(1.00202 -0.0682946 0)
(0.999936 -0.0692004 0)
(0.997784 -0.0699402 0)
(0.995584 -0.070515 0)
(0.993349 -0.0709273 0)
(0.991094 -0.0711814 0)
(0.988833 -0.0712828 0)
(0.986579 -0.0712383 0)
(0.984345 -0.071056 0)
(0.98214 -0.0707448 0)
(0.979974 -0.0703147 0)
(0.977857 -0.0697762 0)
(0.975796 -0.0691404 0)
(0.973796 -0.0684179 0)
(0.971863 -0.0676191 0)
(0.97 -0.066753 0)
(0.968207 -0.0658282 0)
(0.966486 -0.0648524 0)
(0.964834 -0.0638332 0)
(0.963251 -0.0627788 0)
(0.961743 -0.0616977 0)
(0.960317 -0.0605985 0)
(0.958979 -0.0594886 0)
(0.957729 -0.0583747 0)
(0.956563 -0.0572621 0)
(0.95547 -0.0561557 0)
(0.954444 -0.05506 0)
(0.953478 -0.0539789 0)
(0.952569 -0.0529161 0)
(0.951713 -0.0518745 0)
(0.950908 -0.0508569 0)
(0.950153 -0.0498654 0)
(0.949446 -0.0489017 0)
(0.948784 -0.0479671 0)
(0.948165 -0.047063 0)
(0.947587 -0.0461903 0)
(1.01208 -0.000886068 0)
(1.01221 -0.00300929 0)
(1.01245 -0.00482905 0)
(1.01278 -0.0068003 0)
(1.0132 -0.00870821 0)
(1.01369 -0.0106579 0)
(1.01424 -0.012639 0)
(1.01484 -0.0146631 0)
(1.01547 -0.0167385 0)
(1.01613 -0.0188704 0)
(1.01679 -0.0210621 0)
(1.01744 -0.0233154 0)
(1.01807 -0.0256301 0)
(1.01866 -0.0280042 0)
(1.01919 -0.0304343 0)
(1.01965 -0.032915 0)
(1.02003 -0.0354394 0)
(1.0203 -0.0379989 0)
(1.02045 -0.0405837 0)
(1.02047 -0.0431824 0)
(1.02035 -0.0457823 0)
(1.02007 -0.0483699 0)
(1.01964 -0.0509305 0)
(1.01903 -0.053449 0)
(1.01824 -0.0559098 0)
(1.01728 -0.0582973 0)
(1.01615 -0.0605959 0)
(1.01483 -0.0627907 0)
(1.01335 -0.0648672 0)
(1.01171 -0.0668122 0)
(1.00991 -0.0686137 0)
(1.00796 -0.0702611 0)
(1.00589 -0.0717456 0)
(1.0037 -0.0730602 0)
(1.00141 -0.0741998 0)
(0.999038 -0.0751613 0)
(0.996596 -0.0759437 0)
(0.994102 -0.0765478 0)
(0.991573 -0.0769764 0)
(0.989026 -0.0772338 0)
(0.986474 -0.0773263 0)
(0.983934 -0.0772612 0)
(0.981417 -0.0770472 0)
(0.978938 -0.0766934 0)
(0.976506 -0.0762096 0)
(0.974132 -0.0756057 0)
(0.971824 -0.0748921 0)
(0.969589 -0.07408 0)
(0.967433 -0.0731809 0)
(0.965361 -0.0722075 0)
(0.963377 -0.0711723 0)
(0.961487 -0.0700874 0)
(0.959691 -0.0689635 0)
(0.957987 -0.0678094 0)
(0.956366 -0.0666325 0)
(0.954818 -0.0654395 0)
(0.953338 -0.0642373 0)
(0.951927 -0.0630323 0)
(0.950589 -0.0618308 0)
(0.949328 -0.0606381 0)
(0.948144 -0.0594587 0)
(0.947035 -0.0582965 0)
(0.945998 -0.0571549 0)
(0.94503 -0.056037 0)
(0.944125 -0.0549453 0)
(0.94328 -0.0538821 0)
(0.942492 -0.052849 0)
(0.941756 -0.0518479 0)
(0.94107 -0.0508802 0)
(1.01291 -0.000903843 0)
(1.01305 -0.00306131 0)
(1.01331 -0.00491403 0)
(1.01367 -0.0069207 0)
(1.01414 -0.00886243 0)
(1.01468 -0.0108491 0)
(1.01529 -0.0128693 0)
(1.01595 -0.0149353 0)
(1.01666 -0.0170564 0)
(1.01739 -0.0192387 0)
(1.01814 -0.0214866 0)
(1.01888 -0.0238028 0)
(1.01961 -0.0261882 0)
(1.02029 -0.0286419 0)
(1.02093 -0.0311615 0)
(1.02149 -0.0337428 0)
(1.02197 -0.0363798 0)
(1.02234 -0.039065 0)
(1.0226 -0.041789 0)
(1.02271 -0.0445413 0)
(1.02268 -0.0473096 0)
(1.02248 -0.0500803 0)
(1.02211 -0.0528389 0)
(1.02156 -0.0555698 0)
(1.02082 -0.0582567 0)
(1.01988 -0.060883 0)
(1.01874 -0.0634317 0)
(1.01741 -0.0658862 0)
(1.01589 -0.0682302 0)
(1.01418 -0.0704483 0)
(1.01229 -0.072526 0)
(1.01023 -0.0744501 0)
(1.00801 -0.0762093 0)
(1.00566 -0.0777937 0)
(1.00318 -0.0791957 0)
(1.00059 -0.0804094 0)
(0.997906 -0.0814315 0)
(0.995153 -0.0822606 0)
(0.992347 -0.0828973 0)
(0.989506 -0.0833446 0)
(0.986647 -0.083607 0)
(0.983787 -0.0836911 0)
(0.980943 -0.0836047 0)
(0.97813 -0.0833573 0)
(0.97536 -0.0829596 0)
(0.972645 -0.0824238 0)
(0.969996 -0.0817624 0)
(0.96742 -0.0809883 0)
(0.964926 -0.0801138 0)
(0.962518 -0.0791499 0)
(0.960199 -0.0781069 0)
(0.957969 -0.0769943 0)
(0.955829 -0.0758221 0)
(0.953782 -0.074601 0)
(0.951836 -0.0733424 0)
(0.949999 -0.072057 0)
(0.948275 -0.0707544 0)
(0.946659 -0.0694426 0)
(0.945144 -0.0681287 0)
(0.943719 -0.0668189 0)
(0.942377 -0.0655193 0)
(0.941113 -0.0642351 0)
(0.939924 -0.0629711 0)
(0.938806 -0.0617313 0)
(0.937757 -0.0605189 0)
(0.936775 -0.0593369 0)
(0.935856 -0.0581874 0)
(0.934996 -0.0570727 0)
(0.934194 -0.0559943 0)
(1.01372 -0.000920292 0)
(1.01387 -0.00310855 0)
(1.01415 -0.00499126 0)
(1.01454 -0.00702985 0)
(1.01504 -0.00900163 0)
(1.01563 -0.0110212 0)
(1.0163 -0.0130757 0)
(1.01703 -0.0151784 0)
(1.01781 -0.0173394 0)
(1.01862 -0.0195658 0)
(1.01945 -0.0218628 0)
(1.02029 -0.0242342 0)
(1.02111 -0.0266819 0)
(1.0219 -0.0292064 0)
(1.02264 -0.0318063 0)
(1.02331 -0.0344786 0)
(1.0239 -0.0372184 0)
(1.02438 -0.0400194 0)
(1.02474 -0.0428733 0)
(1.02497 -0.0457702 0)
(1.02503 -0.0486987 0)
(1.02493 -0.0516457 0)
(1.02464 -0.0545968 0)
(1.02416 -0.0575365 0)
(1.02348 -0.060448 0)
(1.02258 -0.063314 0)
(1.02147 -0.0661166 0)
(1.02014 -0.0688377 0)
(1.0186 -0.0714593 0)
(1.01685 -0.0739639 0)
(1.01489 -0.0763347 0)
(1.01274 -0.0785561 0)
(1.0104 -0.0806138 0)
(1.00789 -0.0824951 0)
(1.00524 -0.0841893 0)
(1.00244 -0.0856879 0)
(0.999534 -0.0869843 0)
(0.996528 -0.0880746 0)
(0.993446 -0.0889569 0)
(0.990308 -0.0896319 0)
(0.987134 -0.0901024 0)
(0.983945 -0.0903732 0)
(0.980758 -0.0904513 0)
(0.977592 -0.0903453 0)
(0.974463 -0.0900647 0)
(0.971386 -0.0896203 0)
(0.968374 -0.0890231 0)
(0.96544 -0.0882851 0)
(0.962593 -0.0874192 0)
(0.959841 -0.0864396 0)
(0.957192 -0.0853615 0)
(0.954653 -0.0842008 0)
(0.95223 -0.0829722 0)
(0.949924 -0.0816886 0)
(0.947729 -0.0803606 0)
(0.945636 -0.0789976 0)
(0.943636 -0.0776086 0)
(0.941729 -0.0762027 0)
(0.939918 -0.0747889 0)
(0.938207 -0.0733749 0)
(0.936599 -0.0719677 0)
(0.93509 -0.0705731 0)
(0.933678 -0.0691966 0)
(0.932357 -0.0678425 0)
(0.931123 -0.0665151 0)
(0.929969 -0.0652178 0)
(0.928892 -0.0639535 0)
(0.927886 -0.0627251 0)