/*--------------------------------*- C++ -*----------------------------------*\
  =========                 |
  \\      /  F ield         | OpenFOAM: The Open Source CFD Toolbox
   \\    /   O peration     | Website:  https://openfoam.org
    \\  /    A nd           | Version:  10
     \\/     M anipulation  |
\*---------------------------------------------------------------------------*/
FoamFile
{
    format      ascii;
    class       volVectorField;
    location    "170";
    object      U;
}
// * * * * * * * * * * * * * * * * * * * * * * * * * * * * * * * * * * * * * //

dimensions      [0 1 -1 0 0 0 0];

internalField   nonuniform List<vector> 
66268
(
(1 -3.21223e-05 0)
(1 -0.000117614 0)
(1 -0.000187934 0)
(1 -0.000262741 0)
(1 -0.000337095 0)
(1 -0.00041163 0)
(1 -0.000487014 0)
(1 -0.000563419 0)
(1 -0.000640854 0)
(1 -0.000719258 0)
(1 -0.000798483 0)
(1 -0.00087829 0)
(1 -0.000958366 0)
(1 -0.00103834 0)
(1 -0.00111779 0)
(1 -0.00119625 0)
(1 -0.00127324 0)
(1 -0.00134828 0)
(1 -0.00142089 0)
(1 -0.00149058 0)
(1 -0.00155693 0)
(1 -0.00161953 0)
(1 -0.00167804 0)
(1 -0.00173215 0)
(1 -0.00178162 0)
(1 -0.00182627 0)
(1 -0.001866 0)
(1 -0.00190073 0)
(1 -0.00193048 0)
(1 -0.00195529 0)
(1 -0.00197527 0)
(1 -0.00199057 0)
(1 -0.00200138 0)
(1 -0.00200794 0)
(1 -0.00201052 0)
(1 -0.00200941 0)
(1 -0.00200495 0)
(1 -0.00199746 0)
(1 -0.00198726 0)
(1 -0.0019746 0)
(1 -0.00195973 0)
(1 -0.00194281 0)
(1 -0.00192399 0)
(1 -0.0019034 0)
(1 -0.00188115 0)
(0.999999 -0.0018574 0)
(0.999994 -0.00183232 0)
(0.999985 -0.00180614 0)
(0.999971 -0.00177914 0)
(0.999954 -0.00175165 0)
(0.999935 -0.00172395 0)
(0.999918 -0.00169628 0)
(0.999905 -0.00166877 0)
(0.999898 -0.00164147 0)
(0.999898 -0.00161438 0)
(0.999903 -0.00158752 0)
(0.999912 -0.00156093 0)
(0.999924 -0.00153468 0)
(0.999935 -0.00150887 0)
(0.999946 -0.00148361 0)
(0.999956 -0.001459 0)
(0.999965 -0.0014351 0)
(0.999971 -0.00141199 0)
(0.999977 -0.0013897 0)
(0.999981 -0.00136826 0)
(0.999984 -0.00134767 0)
(0.999987 -0.00132794 0)
(0.999988 -0.00130908 0)
(0.99999 -0.00129112 0)
(1.00014 -9.77615e-05 0)
(1.00014 -0.000352268 0)
(1.00014 -0.000560735 0)
(1.00015 -0.000784491 0)
(1.00015 -0.00100545 0)
(1.00016 -0.00122608 0)
(1.00017 -0.0014486 0)
(1.00018 -0.00167333 0)
(1.00019 -0.00190025 0)
(1.0002 -0.00212921 0)
(1.0002 -0.00235976 0)
(1.00021 -0.00259121 0)
(1.00022 -0.00282268 0)
(1.00023 -0.00305311 0)
(1.00024 -0.0032813 0)
(1.00024 -0.00350597 0)
(1.00025 -0.00372576 0)
(1.00025 -0.00393929 0)
(1.00025 -0.00414521 0)
(1.00025 -0.00434221 0)
(1.00025 -0.00452908 0)
(1.00024 -0.00470469 0)
(1.00023 -0.00486809 0)
(1.00022 -0.00501843 0)
(1.00021 -0.00515507 0)
(1.0002 -0.00527751 0)
(1.00018 -0.00538544 0)
(1.00016 -0.00547871 0)
(1.00014 -0.00555735 0)
(1.00012 -0.00562153 0)
(1.0001 -0.00567158 0)
(1.00008 -0.00570798 0)
(1.00006 -0.0057313 0)
(1.00003 -0.00574216 0)
(1.00001 -0.00574121 0)
(0.999981 -0.00572913 0)
(0.999955 -0.00570657 0)
(0.99993 -0.00567422 0)
(0.999904 -0.00563279 0)
(0.999879 -0.00558305 0)
(0.999853 -0.00552587 0)
(0.999828 -0.0054622 0)
(0.999803 -0.00539305 0)
(0.999778 -0.00531941 0)
(0.999754 -0.00524227 0)
(0.999732 -0.00516254 0)
(0.999713 -0.00508101 0)
(0.9997 -0.00499839 0)
(0.999692 -0.00491524 0)
(0.999689 -0.00483194 0)
(0.99969 -0.00474878 0)
(0.99969 -0.00466597 0)
(0.999686 -0.00458371 0)
(0.999676 -0.00450219 0)
(0.999658 -0.00442165 0)
(0.999635 -0.00434227 0)
(0.999608 -0.00426423 0)
(0.99958 -0.00418766 0)
(0.999552 -0.00411265 0)
(0.999527 -0.00403927 0)
(0.999504 -0.00396761 0)
(0.999483 -0.00389773 0)
(0.999466 -0.00382969 0)
(0.999451 -0.00376356 0)
(0.999437 -0.00369939 0)
(0.999426 -0.00363723 0)
(0.999416 -0.00357711 0)
(0.999407 -0.00351909 0)
(0.999399 -0.00346326 0)
(1.00043 -0.000165386 0)
(1.00043 -0.000587204 0)
(1.00044 -0.000931762 0)
(1.00045 -0.00130487 0)
(1.00047 -0.00167038 0)
(1.00049 -0.0020339 0)
(1.00051 -0.00239953 0)
(1.00053 -0.00276734 0)
(1.00056 -0.00313729 0)
(1.00058 -0.00350919 0)
(1.00061 -0.00388233 0)
(1.00063 -0.00425564 0)
(1.00065 -0.00462774 0)
(1.00067 -0.00499701 0)
(1.00069 -0.0053616 0)
(1.0007 -0.00571953 0)
(1.00071 -0.00606871 0)
(1.00071 -0.00640703 0)
(1.00071 -0.0067324 0)
(1.00071 -0.00704281 0)
(1.00069 -0.00733637 0)
(1.00067 -0.00761137 0)
(1.00065 -0.0078663 0)
(1.00062 -0.00809989 0)
(1.00058 -0.00831114 0)
(1.00053 -0.00849929 0)
(1.00049 -0.0086639 0)
(1.00043 -0.00880478 0)
(1.00037 -0.008922 0)
(1.00031 -0.00901588 0)
(1.00025 -0.00908696 0)
(1.00018 -0.00913598 0)
(1.00011 -0.00916386 0)
(1.00003 -0.00917163 0)
(0.999961 -0.00916045 0)
(0.999887 -0.00913162 0)
(0.999813 -0.00908657 0)
(0.999738 -0.00902681 0)
(0.999665 -0.0089539 0)
(0.999591 -0.00886937 0)
(0.999519 -0.00877461 0)
(0.999449 -0.00867087 0)
(0.999379 -0.00855921 0)
(0.999312 -0.00844055 0)
(0.999246 -0.00831572 0)
(0.999182 -0.00818548 0)
(0.999119 -0.00805055 0)
(0.999055 -0.00791161 0)
(0.99899 -0.00776939 0)
(0.998925 -0.00762464 0)
(0.998861 -0.00747823 0)
(0.9988 -0.00733102 0)
(0.998746 -0.00718388 0)
(0.9987 -0.00703762 0)
(0.998662 -0.00689291 0)
(0.998632 -0.00675031 0)
(0.998608 -0.00661029 0)
(0.998587 -0.00647323 0)
(0.998568 -0.00633942 0)
(0.99855 -0.00620911 0)
(0.998532 -0.0060825 0)
(0.998514 -0.00595973 0)
(0.998496 -0.00584091 0)
(0.998478 -0.0057261 0)
(0.99846 -0.00561536 0)
(0.998443 -0.00550871 0)
(0.998426 -0.00540614 0)
(0.998409 -0.00530767 0)
(0.998393 -0.0052133 0)
(1.00084 -0.000234727 0)
(1.00084 -0.00082498 0)
(1.00087 -0.00130831 0)
(1.00089 -0.00183351 0)
(1.00092 -0.00234388 0)
(1.00095 -0.00285025 0)
(1.00099 -0.00335811 0)
(1.00103 -0.00386695 0)
(1.00108 -0.00437693 0)
(1.00112 -0.00488782 0)
(1.00116 -0.00539868 0)
(1.0012 -0.00590812 0)
(1.00124 -0.00641438 0)
(1.00127 -0.00691536 0)
(1.0013 -0.00740867 0)
(1.00132 -0.00789177 0)
(1.00133 -0.00836194 0)
(1.00133 -0.00881647 0)
(1.00132 -0.00925264 0)
(1.0013 -0.00966783 0)
(1.00127 -0.0100596 0)
(1.00123 -0.0104256 0)
(1.00118 -0.010764 0)
(1.00112 -0.0110731 0)
(1.00104 -0.0113516 0)
(1.00096 -0.0115983 0)
(1.00086 -0.0118129 0)
(1.00076 -0.0119949 0)
(1.00065 -0.0121444 0)
(1.00053 -0.0122619 0)
(1.0004 -0.012348 0)
(1.00027 -0.0124038 0)
(1.00014 -0.0124304 0)
(1 -0.0124292 0)
(0.999867 -0.012402 0)
(0.999728 -0.0123503 0)
(0.999589 -0.012276 0)
(0.999451 -0.0121807 0)
(0.999315 -0.0120661 0)
(0.999181 -0.0119339 0)
(0.999049 -0.0117858 0)
(0.99892 -0.0116235 0)
(0.998796 -0.0114488 0)
(0.998674 -0.0112637 0)
(0.998558 -0.0110702 0)
(0.998446 -0.01087 0)
(0.99834 -0.010665 0)
(0.998242 -0.0104568 0)
(0.998151 -0.010247 0)
(0.998069 -0.0100368 0)
(0.997993 -0.00982714 0)
(0.997921 -0.00961883 0)
(0.997849 -0.0094124 0)
(0.997776 -0.00920833 0)
(0.997701 -0.00900703 0)
(0.997624 -0.00880892 0)
(0.997547 -0.0086144 0)
(0.997472 -0.00842384 0)
(0.997401 -0.00823756 0)
(0.997334 -0.00805585 0)
(0.997271 -0.00787896 0)
(0.997214 -0.00770709 0)
(0.997161 -0.00754039 0)
(0.997113 -0.007379 0)
(0.997068 -0.00722301 0)
(0.997027 -0.00707249 0)
(0.996989 -0.00692747 0)
(0.996954 -0.00678799 0)
(0.996921 -0.00665409 0)
(1.00133 -0.000304578 0)
(1.00134 -0.00106467 0)
(1.00138 -0.00169122 0)
(1.00141 -0.00237058 0)
(1.00146 -0.00302631 0)
(1.00151 -0.00367655 0)
(1.00157 -0.00432678 0)
(1.00163 -0.00497602 0)
(1.00169 -0.00562482 0)
(1.00176 -0.00627291 0)
(1.00182 -0.00691914 0)
(1.00188 -0.00756188 0)
(1.00193 -0.00819907 0)
(1.00198 -0.00882822 0)
(1.00202 -0.00944652 0)
(1.00205 -0.0100509 0)
(1.00206 -0.0106382 0)
(1.00206 -0.0112052 0)
(1.00204 -0.0117486 0)
(1.00201 -0.0122652 0)
(1.00196 -0.012752 0)
(1.0019 -0.0132064 0)
(1.00181 -0.0136259 0)
(1.00171 -0.0140085 0)
(1.00159 -0.0143523 0)
(1.00146 -0.0146563 0)
(1.00131 -0.0149196 0)
(1.00115 -0.0151417 0)
(1.00097 -0.0153227 0)
(1.00078 -0.0154631 0)
(1.00059 -0.0155638 0)
(1.00038 -0.0156259 0)
(1.00017 -0.0156509 0)
(0.999956 -0.0156408 0)
(0.999736 -0.0155974 0)
(0.999515 -0.0155228 0)
(0.999294 -0.0154194 0)
(0.999073 -0.0152895 0)
(0.998854 -0.0151357 0)
(0.998638 -0.0149606 0)
(0.998426 -0.0147667 0)
(0.998217 -0.0145567 0)
(0.998014 -0.0143327 0)
(0.997815 -0.0140968 0)
(0.997623 -0.0138508 0)
(0.997436 -0.0135962 0)
(0.997255 -0.0133344 0)
(0.99708 -0.0130668 0)
(0.99691 -0.0127945 0)
(0.996745 -0.0125188 0)
(0.996586 -0.012241 0)
(0.996434 -0.0119626 0)
(0.996292 -0.011685 0)
(0.996161 -0.0114096 0)
(0.996041 -0.0111375 0)
(0.995933 -0.0108698 0)
(0.995834 -0.0106073 0)
(0.995742 -0.0103506 0)
(0.995657 -0.0101001 0)
(0.995576 -0.00985619 0)
(0.995499 -0.00961919 0)
(0.995425 -0.0093893 0)
(0.995355 -0.0091667 0)
(0.995288 -0.00895151 0)
(0.995225 -0.00874381 0)
(0.995165 -0.00854364 0)
(0.995108 -0.00835102 0)
(0.995054 -0.00816596 0)
(0.995004 -0.00798847 0)
(1.00189 -0.000374305 0)
(1.00191 -0.0013037 0)
(1.00196 -0.00207529 0)
(1.002 -0.00290855 0)
(1.00206 -0.00370887 0)
(1.00214 -0.00450278 0)
(1.00221 -0.00529454 0)
(1.0023 -0.00608305 0)
(1.00239 -0.00686938 0)
(1.00248 -0.00765314 0)
(1.00256 -0.00843303 0)
(1.00264 -0.00920733 0)
(1.00272 -0.00997369 0)
(1.00278 -0.0107293 0)
(1.00283 -0.0114712 0)
(1.00287 -0.0121957 0)
(1.00289 -0.0128993 0)
(1.00289 -0.0135784 0)
(1.00287 -0.0142291 0)
(1.00282 -0.0148479 0)
(1.00275 -0.0154313 0)
(1.00266 -0.0159761 0)
(1.00254 -0.0164795 0)
(1.0024 -0.0169388 0)
(1.00223 -0.0173521 0)
(1.00204 -0.0177179 0)
(1.00183 -0.0180349 0)
(1.0016 -0.0183026 0)
(1.00135 -0.0185211 0)
(1.00108 -0.0186907 0)
(1.0008 -0.0188124 0)
(1.0005 -0.0188873 0)
(1.0002 -0.0189172 0)
(0.999887 -0.0189041 0)
(0.99957 -0.0188502 0)
(0.999251 -0.018758 0)
(0.99893 -0.0186301 0)
(0.99861 -0.0184694 0)
(0.998293 -0.0182786 0)
(0.997979 -0.0180605 0)
(0.997671 -0.0178176 0)
(0.99737 -0.0175528 0)
(0.997076 -0.0172687 0)
(0.99679 -0.0169681 0)
(0.996513 -0.0166537 0)
(0.996246 -0.0163282 0)
(0.995989 -0.0159944 0)
(0.995744 -0.0156546 0)
(0.99551 -0.0153112 0)
(0.99529 -0.0149662 0)
(0.995082 -0.0146212 0)
(0.994885 -0.0142776 0)
(0.994697 -0.0139364 0)
(0.994517 -0.0135986 0)
(0.994343 -0.0132649 0)
(0.994174 -0.0129361 0)
(0.994011 -0.0126129 0)
(0.993855 -0.0122962 0)
(0.993708 -0.0119864 0)
(0.993569 -0.0116843 0)
(0.99344 -0.0113901 0)
(0.993318 -0.0111044 0)
(0.993205 -0.0108274 0)
(0.9931 -0.0105593 0)
(0.993002 -0.0103003 0)
(0.99291 -0.0100505 0)
(0.992824 -0.00980999 0)
(0.992745 -0.00957873 0)
(0.99267 -0.00935677 0)
(1.00253 -0.000443303 0)
(1.00255 -0.00153795 0)
(1.00261 -0.0024517 0)
(1.00267 -0.00343549 0)
(1.00275 -0.00437718 0)
(1.00284 -0.00531199 0)
(1.00294 -0.00624231 0)
(1.00305 -0.00716731 0)
(1.00316 -0.00808851 0)
(1.00328 -0.00900543 0)
(1.00339 -0.00991676 0)
(1.00349 -0.0108207 0)
(1.00359 -0.0117147 0)
(1.00367 -0.0125958 0)
(1.00374 -0.0134607 0)
(1.00379 -0.0143056 0)
(1.00381 -0.0151266 0)
(1.00381 -0.0159195 0)
(1.00378 -0.0166804 0)
(1.00372 -0.0174052 0)
(1.00363 -0.0180899 0)
(1.00351 -0.0187309 0)
(1.00336 -0.0193248 0)
(1.00317 -0.0198688 0)
(1.00295 -0.0203602 0)
(1.00269 -0.0207972 0)
(1.00241 -0.0211783 0)
(1.0021 -0.0215025 0)
(1.00177 -0.0217696 0)
(1.00141 -0.0219798 0)
(1.00103 -0.0221336 0)
(1.00064 -0.0222325 0)
(1.00023 -0.022278 0)
(0.999808 -0.0222723 0)
(0.999381 -0.0222179 0)
(0.998948 -0.0221175 0)
(0.998513 -0.0219742 0)
(0.998077 -0.0217911 0)
(0.997645 -0.0215716 0)
(0.997217 -0.0213193 0)
(0.996795 -0.0210376 0)
(0.996381 -0.0207302 0)
(0.995976 -0.0204004 0)
(0.995582 -0.0200514 0)
(0.995199 -0.0196862 0)
(0.994829 -0.0193072 0)
(0.994471 -0.0189169 0)
(0.994126 -0.0185174 0)
(0.993794 -0.0181108 0)
(0.993476 -0.0176991 0)
(0.99317 -0.0172842 0)
(0.992878 -0.0168682 0)
(0.992602 -0.0164529 0)
(0.992341 -0.0160404 0)
(0.992098 -0.0156322 0)
(0.991871 -0.0152298 0)
(0.99166 -0.0148344 0)
(0.991462 -0.014447 0)
(0.991277 -0.0140683 0)
(0.991103 -0.013699 0)
(0.990938 -0.0133395 0)
(0.990783 -0.0129904 0)
(0.990637 -0.0126519 0)
(0.990498 -0.0123243 0)
(0.990368 -0.0120078 0)
(0.990245 -0.0117026 0)
(0.99013 -0.0114086 0)
(0.990022 -0.011126 0)
(0.98992 -0.0108547 0)
(1.00324 -0.000510268 0)
(1.00327 -0.00176201 0)
(1.00333 -0.00281077 0)
(1.00341 -0.00393827 0)
(1.0035 -0.00501507 0)
(1.00362 -0.00608509 0)
(1.00374 -0.00714849 0)
(1.00388 -0.00820505 0)
(1.00402 -0.00925668 0)
(1.00416 -0.0103028 0)
(1.0043 -0.0113423 0)
(1.00443 -0.0123733 0)
(1.00455 -0.0133931 0)
(1.00465 -0.0143987 0)
(1.00474 -0.0153866 0)
(1.0048 -0.0163529 0)
(1.00483 -0.0172933 0)
(1.00483 -0.0182035 0)
(1.00479 -0.0190792 0)
(1.00472 -0.0199157 0)
(1.00461 -0.020709 0)
(1.00446 -0.0214547 0)
(1.00427 -0.0221491 0)
(1.00403 -0.0227888 0)
(1.00376 -0.0233707 0)
(1.00344 -0.0238923 0)
(1.00308 -0.0243516 0)
(1.00269 -0.0247472 0)
(1.00227 -0.0250783 0)
(1.00181 -0.0253449 0)
(1.00133 -0.0255472 0)
(1.00082 -0.0256865 0)
(1.0003 -0.0257642 0)
(0.999757 -0.0257825 0)
(0.999204 -0.0257439 0)
(0.998644 -0.0256512 0)
(0.99808 -0.0255076 0)
(0.997514 -0.0253166 0)
(0.996951 -0.0250817 0)
(0.996394 -0.0248064 0)
(0.995844 -0.0244945 0)
(0.995304 -0.0241495 0)
(0.994777 -0.0237749 0)
(0.994264 -0.0233745 0)
(0.993765 -0.0229519 0)
(0.993283 -0.022511 0)
(0.992818 -0.0220554 0)
(0.992371 -0.0215887 0)
(0.991943 -0.0211142 0)
(0.991535 -0.0206349 0)
(0.991147 -0.0201533 0)
(0.990778 -0.0196715 0)
(0.990428 -0.0191914 0)
(0.990094 -0.0187145 0)
(0.989776 -0.0182422 0)
(0.989472 -0.0177756 0)
(0.989182 -0.0173161 0)
(0.988907 -0.0168647 0)
(0.988646 -0.0164225 0)
(0.988401 -0.0159904 0)
(0.98817 -0.0155692 0)
(0.987954 -0.0151594 0)
(0.987751 -0.0147615 0)
(0.987561 -0.014376 0)
(0.987384 -0.0140032 0)
(0.987218 -0.0136432 0)
(0.987063 -0.0132961 0)
(0.986918 -0.0129622 0)
(0.986783 -0.0126414 0)
(1.00401 -0.000573537 0)
(1.00404 -0.00197064 0)
(1.00411 -0.00314434 0)
(1.0042 -0.00440576 0)
(1.00432 -0.00560872 0)
(1.00446 -0.00680577 0)
(1.00461 -0.00799461 0)
(1.00478 -0.00917595 0)
(1.00495 -0.010352 0)
(1.00512 -0.0115222 0)
(1.00529 -0.0126857 0)
(1.00545 -0.0138404 0)
(1.00559 -0.0149839 0)
(1.00572 -0.016113 0)
(1.00582 -0.0172242 0)
(1.0059 -0.0183134 0)
(1.00594 -0.0193762 0)
(1.00595 -0.0204082 0)
(1.00591 -0.0214046 0)
(1.00583 -0.0223606 0)
(1.0057 -0.0232715 0)
(1.00552 -0.0241328 0)
(1.00529 -0.0249401 0)
(1.00501 -0.0256894 0)
(1.00468 -0.026377 0)
(1.0043 -0.0269998 0)
(1.00387 -0.0275552 0)
(1.00339 -0.0280412 0)
(1.00287 -0.0284563 0)
(1.00231 -0.0287999 0)
(1.00172 -0.0290719 0)
(1.0011 -0.0292728 0)
(1.00045 -0.0294038 0)
(0.999776 -0.0294668 0)
(0.999089 -0.0294638 0)
(0.99839 -0.0293977 0)
(0.997685 -0.0292717 0)
(0.996976 -0.0290893 0)
(0.996269 -0.0288543 0)
(0.995567 -0.0285709 0)
(0.994873 -0.0282434 0)
(0.99419 -0.0278763 0)
(0.99352 -0.0274743 0)
(0.992866 -0.0270418 0)
(0.99223 -0.026583 0)
(0.991613 -0.0261019 0)
(0.991017 -0.025602 0)
(0.990442 -0.0250865 0)
(0.989889 -0.0245585 0)
(0.989358 -0.0240209 0)
(0.988849 -0.0234765 0)
(0.988363 -0.0229282 0)
(0.987899 -0.0223784 0)
(0.987459 -0.0218299 0)
(0.987043 -0.0212849 0)
(0.986651 -0.0207454 0)
(0.986284 -0.0202132 0)
(0.985939 -0.0196899 0)
(0.985615 -0.0191765 0)
(0.985311 -0.0186742 0)
(0.985024 -0.018184 0)
(0.984754 -0.0177066 0)
(0.9845 -0.0172427 0)
(0.984261 -0.0167928 0)
(0.984036 -0.0163572 0)
(0.983825 -0.0159364 0)
(0.983627 -0.0155305 0)
(0.983442 -0.0151397 0)
(0.983268 -0.014764 0)
(1.00482 -0.00063172 0)
(1.00485 -0.00216021 0)
(1.00494 -0.00344739 0)
(1.00505 -0.00483116 0)
(1.00519 -0.00614969 0)
(1.00535 -0.00746407 0)
(1.00553 -0.00876948 0)
(1.00573 -0.0100677 0)
(1.00593 -0.0113613 0)
(1.00613 -0.0126498 0)
(1.00633 -0.0139324 0)
(1.00652 -0.0152074 0)
(1.0067 -0.0164723 0)
(1.00685 -0.0177241 0)
(1.00698 -0.0189591 0)
(1.00708 -0.0201733 0)
(1.00714 -0.0213622 0)
(1.00715 -0.0225211 0)
(1.00712 -0.0236452 0)
(1.00703 -0.0247293 0)
(1.00689 -0.0257685 0)
(1.00669 -0.0267576 0)
(1.00643 -0.0276918 0)
(1.00611 -0.0285666 0)
(1.00572 -0.0293774 0)
(1.00528 -0.0301206 0)
(1.00478 -0.0307927 0)
(1.00422 -0.0313909 0)
(1.0036 -0.0319129 0)
(1.00294 -0.0323573 0)
(1.00224 -0.0327231 0)
(1.00149 -0.0330102 0)
(1.00071 -0.0332192 0)
(0.999905 -0.0333514 0)
(0.999074 -0.0334086 0)
(0.998227 -0.0333936 0)
(0.997368 -0.0333093 0)
(0.996503 -0.0331594 0)
(0.995636 -0.0329479 0)
(0.994773 -0.0326789 0)
(0.993918 -0.0323571 0)
(0.993074 -0.0319866 0)
(0.992246 -0.0315721 0)
(0.991437 -0.0311179 0)
(0.990649 -0.0306286 0)
(0.989884 -0.0301089 0)
(0.989145 -0.0295636 0)
(0.988432 -0.0289974 0)
(0.987748 -0.0284149 0)
(0.987092 -0.0278202 0)
(0.986465 -0.027217 0)
(0.985868 -0.0266088 0)
(0.985299 -0.0259984 0)
(0.984758 -0.0253882 0)
(0.984244 -0.0247804 0)
(0.983753 -0.0241772 0)
(0.983287 -0.0235805 0)
(0.982844 -0.0229921 0)
(0.982425 -0.0224136 0)
(0.98203 -0.0218464 0)
(0.981657 -0.0212918 0)
(0.981307 -0.0207507 0)
(0.980979 -0.020224 0)
(0.980671 -0.0197125 0)
(0.980382 -0.0192166 0)
(0.980112 -0.0187369 0)
(0.979859 -0.0182735 0)
(0.979623 -0.0178268 0)
(0.979401 -0.0173969 0)
(1.00566 -0.000683989 0)
(1.0057 -0.00232907 0)
(1.0058 -0.0037181 0)
(1.00593 -0.00521199 0)
(1.00609 -0.00663493 0)
(1.00628 -0.0080564 0)
(1.00649 -0.0094691 0)
(1.00672 -0.010876 0)
(1.00695 -0.0122799 0)
(1.00719 -0.0136806 0)
(1.00742 -0.0150775 0)
(1.00765 -0.0164692 0)
(1.00786 -0.0178533 0)
(1.00804 -0.0192268 0)
(1.0082 -0.0205862 0)
(1.00832 -0.0219275 0)
(1.0084 -0.0232461 0)
(1.00843 -0.0245374 0)
(1.0084 -0.0257962 0)
(1.00832 -0.0270173 0)
(1.00817 -0.0281953 0)
(1.00796 -0.0293248 0)
(1.00767 -0.0304004 0)
(1.00732 -0.0314169 0)
(1.00689 -0.0323692 0)
(1.00639 -0.0332526 0)
(1.00582 -0.034063 0)
(1.00518 -0.0347964 0)
(1.00448 -0.0354497 0)
(1.00372 -0.0360204 0)
(1.0029 -0.0365067 0)
(1.00204 -0.0369075 0)
(1.00113 -0.0372227 0)
(1.00018 -0.0374527 0)
(0.999198 -0.0375989 0)
(0.998195 -0.0376632 0)
(0.997174 -0.0376482 0)
(0.996141 -0.0375571 0)
(0.995105 -0.0373937 0)
(0.994069 -0.037162 0)
(0.993039 -0.0368667 0)
(0.992021 -0.0365127 0)
(0.991019 -0.0361053 0)
(0.990037 -0.0356501 0)
(0.989078 -0.0351526 0)
(0.988145 -0.034618 0)
(0.98724 -0.0340514 0)
(0.986366 -0.0334574 0)
(0.985523 -0.0328403 0)
(0.984713 -0.0322042 0)
(0.983935 -0.0315532 0)
(0.983189 -0.0308909 0)
(0.982475 -0.0302214 0)
(0.981795 -0.029548 0)
(0.981149 -0.0288743 0)
(0.980538 -0.0282032 0)
(0.979962 -0.0275373 0)
(0.979419 -0.0268788 0)
(0.978908 -0.0262297 0)
(0.978427 -0.0255918 0)
(0.977974 -0.0249666 0)
(0.977547 -0.0243553 0)
(0.977145 -0.0237592 0)
(0.976768 -0.0231792 0)
(0.976413 -0.0226162 0)
(0.97608 -0.0220707 0)
(0.975767 -0.0215432 0)
(0.975474 -0.0210341 0)
(0.9752 -0.0205438 0)
(1.00651 -0.000730118 0)
(1.00657 -0.00247716 0)
(1.00668 -0.00395663 0)
(1.00682 -0.00554838 0)
(1.00701 -0.00706463 0)
(1.00723 -0.00858294 0)
(1.00747 -0.0100936 0)
(1.00773 -0.0116009 0)
(1.008 -0.0131077 0)
(1.00828 -0.0146144 0)
(1.00855 -0.0161207 0)
(1.00881 -0.0176252 0)
(1.00906 -0.0191258 0)
(1.00928 -0.0206198 0)
(1.00947 -0.0221036 0)
(1.00962 -0.0235734 0)
(1.00972 -0.0250247 0)
(1.00977 -0.0264528 0)
(1.00977 -0.0278525 0)
(1.00969 -0.0292184 0)
(1.00955 -0.0305449 0)
(1.00933 -0.0318262 0)
(1.00903 -0.0330565 0)
(1.00865 -0.03423 0)
(1.00819 -0.0353409 0)
(1.00765 -0.0363838 0)
(1.00702 -0.0373534 0)
(1.00632 -0.038245 0)
(1.00553 -0.0390542 0)
(1.00468 -0.0397775 0)
(1.00375 -0.0404119 0)
(1.00277 -0.0409551 0)
(1.00173 -0.0414059 0)
(1.00064 -0.0417635 0)
(0.999508 -0.0420284 0)
(0.998344 -0.0422015 0)
(0.997155 -0.0422848 0)
(0.995948 -0.0422811 0)
(0.99473 -0.0421938 0)
(0.993509 -0.0420271 0)
(0.992291 -0.0417856 0)
(0.991082 -0.0414743 0)
(0.989888 -0.0410983 0)
(0.988715 -0.0406631 0)
(0.987567 -0.0401739 0)
(0.986447 -0.0396363 0)
(0.98536 -0.0390561 0)
(0.984308 -0.0384391 0)
(0.983294 -0.0377912 0)
(0.982317 -0.037118 0)
(0.981381 -0.0364247 0)
(0.980485 -0.0357163 0)
(0.97963 -0.034997 0)
(0.978815 -0.0342706 0)
(0.978039 -0.0335406 0)
(0.9773 -0.0328101 0)
(0.976597 -0.0320824 0)
(0.975928 -0.0313601 0)
(0.975295 -0.0306459 0)
(0.974695 -0.0299421 0)
(0.97413 -0.0292507 0)
(0.973598 -0.0285734 0)
(0.973097 -0.0279115 0)
(0.972627 -0.0272663 0)
(0.972186 -0.0266388 0)
(0.971772 -0.0260299 0)
(0.971385 -0.0254401 0)
(0.971022 -0.0248701 0)
(0.970682 -0.0243202 0)
(1.00737 -0.000770342 0)
(1.00743 -0.00260537 0)
(1.00756 -0.00416404 0)
(1.00772 -0.00584172 0)
(1.00793 -0.00744049 0)
(1.00818 -0.00904558 0)
(1.00846 -0.010645 0)
(1.00875 -0.0122443 0)
(1.00906 -0.0138466 0)
(1.00938 -0.0154528 0)
(1.00969 -0.0170628 0)
(1.01 -0.0186756 0)
(1.01029 -0.0202894 0)
(1.01055 -0.0219016 0)
(1.01078 -0.0235088 0)
(1.01097 -0.0251073 0)
(1.01111 -0.0266928 0)
(1.01119 -0.0282606 0)
(1.01121 -0.0298055 0)
(1.01116 -0.031322 0)
(1.01103 -0.0328045 0)
(1.01081 -0.0342469 0)
(1.01051 -0.035643 0)
(1.01012 -0.0369865 0)
(1.00964 -0.0382711 0)
(1.00906 -0.0394904 0)
(1.00839 -0.0406384 0)
(1.00763 -0.0417093 0)
(1.00678 -0.0426975 0)
(1.00584 -0.0435983 0)
(1.00481 -0.0444072 0)
(1.00372 -0.0451207 0)
(1.00255 -0.045736 0)
(1.00132 -0.0462512 0)
(1.00004 -0.0466654 0)
(0.998717 -0.0469787 0)
(0.997355 -0.0471921 0)
(0.995966 -0.0473074 0)
(0.994559 -0.0473274 0)
(0.993142 -0.0472556 0)
(0.991723 -0.0470961 0)
(0.99031 -0.0468536 0)
(0.98891 -0.0465336 0)
(0.987529 -0.0461419 0)
(0.986174 -0.0456848 0)
(0.984849 -0.0451689 0)
(0.983558 -0.0446005 0)
(0.982305 -0.0439858 0)
(0.981092 -0.0433306 0)
(0.979921 -0.0426406 0)
(0.978794 -0.0419211 0)
(0.977711 -0.0411774 0)
(0.976671 -0.0404149 0)
(0.975677 -0.0396386 0)
(0.974728 -0.0388534 0)
(0.973828 -0.0380637 0)
(0.972975 -0.0372734 0)
(0.972169 -0.0364859 0)
(0.971409 -0.0357042 0)
(0.970693 -0.0349309 0)
(0.970017 -0.0341686 0)
(0.96938 -0.0334194 0)
(0.96878 -0.0326852 0)
(0.968215 -0.0319678 0)
(0.967684 -0.0312685 0)
(0.967185 -0.0305885 0)
(0.966717 -0.0299288 0)
(0.966277 -0.0292903 0)
(0.965865 -0.0286736 0)
(1.00822 -0.000805095 0)
(1.00829 -0.00271504 0)
(1.00843 -0.00434208 0)
(1.00862 -0.00609435 0)
(1.00886 -0.00776535 0)
(1.00914 -0.00944742 0)
(1.00945 -0.0111265 0)
(1.00978 -0.0128093 0)
(1.01013 -0.0144995 0)
(1.01049 -0.0161983 0)
(1.01085 -0.017906 0)
(1.01121 -0.0196219 0)
(1.01154 -0.0213444 0)
(1.01185 -0.0230712 0)
(1.01213 -0.0247993 0)
(1.01236 -0.026525 0)
(1.01254 -0.0282442 0)
(1.01266 -0.0299523 0)
(1.01272 -0.0316443 0)
(1.0127 -0.0333148 0)
(1.01259 -0.0349579 0)
(1.0124 -0.0365676 0)
(1.01211 -0.0381373 0)
(1.01172 -0.0396606 0)
(1.01123 -0.0411304 0)
(1.01064 -0.0425399 0)
(1.00994 -0.0438821 0)
(1.00913 -0.0451501 0)
(1.00822 -0.0463374 0)
(1.00721 -0.0474378 0)
(1.0061 -0.0484454 0)
(1.0049 -0.0493552 0)
(1.00362 -0.050163 0)
(1.00226 -0.0508653 0)
(1.00083 -0.0514597 0)
(0.999344 -0.0519447 0)
(0.997811 -0.0523198 0)
(0.996238 -0.0525858 0)
(0.994637 -0.0527443 0)
(0.993017 -0.0527979 0)
(0.991387 -0.0527504 0)
(0.989757 -0.0526062 0)
(0.988136 -0.0523707 0)
(0.986531 -0.0520494 0)
(0.984949 -0.0516485 0)
(0.983398 -0.0511743 0)
(0.981883 -0.0506333 0)
(0.980409 -0.0500324 0)
(0.978979 -0.0493788 0)
(0.977597 -0.0486797 0)
(0.976265 -0.0479421 0)
(0.974986 -0.0471727 0)
(0.973761 -0.0463776 0)
(0.972591 -0.0455623 0)
(0.971475 -0.044732 0)
(0.97041 -0.0438914 0)
(0.969395 -0.043045 0)
(0.968428 -0.0421971 0)
(0.96751 -0.0413519 0)
(0.966639 -0.0405129 0)
(0.965816 -0.0396833 0)
(0.965039 -0.0388659 0)
(0.964308 -0.0380629 0)
(0.96362 -0.0372764 0)
(0.962973 -0.0365081 0)
(0.962366 -0.0357596 0)
(0.961797 -0.0350319 0)
(0.961263 -0.0343263 0)
(0.960763 -0.0336435 0)
(1.00906 -0.000834854 0)
(1.00914 -0.00280782 0)
(1.0093 -0.00449316 0)
(1.00951 -0.00630952 0)
(1.00977 -0.00804312 0)
(1.01008 -0.00979288 0)
(1.01043 -0.0115429 0)
(1.01081 -0.013301 0)
(1.0112 -0.0150712 0)
(1.01161 -0.0168553 0)
(1.01202 -0.018654 0)
(1.01243 -0.020467 0)
(1.01281 -0.0222929 0)
(1.01318 -0.0241296 0)
(1.0135 -0.0259744 0)
(1.01379 -0.0278239 0)
(1.01402 -0.0296743 0)
(1.01419 -0.031521 0)
(1.01429 -0.0333593 0)
(1.01431 -0.0351839 0)
(1.01424 -0.0369891 0)
(1.01408 -0.0387687 0)
(1.01381 -0.0405163 0)
(1.01344 -0.042225 0)
(1.01296 -0.0438877 0)
(1.01236 -0.0454968 0)
(1.01164 -0.0470448 0)
(1.01081 -0.0485239 0)
(1.00986 -0.0499265 0)
(1.00879 -0.0512451 0)
(1.00761 -0.0524725 0)
(1.00633 -0.0536022 0)
(1.00494 -0.054628 0)
(1.00346 -0.0555449 0)
(1.00189 -0.0563485 0)
(1.00026 -0.0570356 0)
(0.998554 -0.0576042 0)
(0.996798 -0.0580533 0)
(0.995001 -0.0583834 0)
(0.993172 -0.0585959 0)
(0.991324 -0.0586936 0)
(0.989467 -0.0586801 0)
(0.987611 -0.0585599 0)
(0.985766 -0.0583385 0)
(0.983942 -0.0580221 0)
(0.982147 -0.0576177 0)
(0.980386 -0.0571325 0)
(0.978668 -0.0565742 0)
(0.976996 -0.0559501 0)
(0.975374 -0.0552674 0)
(0.973806 -0.0545331 0)
(0.972293 -0.0537544 0)
(0.970836 -0.0529382 0)
(0.969437 -0.0520915 0)
(0.968098 -0.0512212 0)
(0.96682 -0.0503337 0)
(0.965607 -0.0494347 0)
(0.964458 -0.0485294 0)
(0.963372 -0.047622 0)
(0.962345 -0.0467167 0)
(0.961376 -0.0458173 0)
(0.960461 -0.0449271 0)
(0.959598 -0.0440493 0)
(0.958785 -0.0431867 0)
(0.958019 -0.0423416 0)
(0.957298 -0.0415161 0)
(0.956621 -0.040712 0)
(0.955985 -0.0399307 0)
(0.955388 -0.0391735 0)
(1.00989 -0.000860151 0)
(1.00998 -0.0028856 0)
(1.01015 -0.00462027 0)
(1.01038 -0.00649129 0)
(1.01067 -0.00827871 0)
(1.01102 -0.0100876 0)
(1.01141 -0.0119002 0)
(1.01183 -0.0137257 0)
(1.01227 -0.0155683 0)
(1.01273 -0.0174304 0)
(1.01319 -0.0193132 0)
(1.01365 -0.0212165 0)
(1.01409 -0.0231395 0)
(1.01451 -0.0250802 0)
(1.0149 -0.0270363 0)
(1.01524 -0.0290046 0)
(1.01553 -0.0309816 0)
(1.01575 -0.0329629 0)
(1.01591 -0.0349442 0)
(1.01598 -0.0369203 0)
(1.01596 -0.0388857 0)
(1.01584 -0.0408345 0)
(1.01561 -0.0427604 0)
(1.01527 -0.0446564 0)
(1.01481 -0.0465152 0)
(1.01423 -0.0483292 0)
(1.01351 -0.0500903 0)
(1.01267 -0.05179 0)
(1.0117 -0.0534198 0)
(1.01059 -0.0549712 0)
(1.00936 -0.0564357 0)
(1.008 -0.057805 0)
(1.00653 -0.0590714 0)
(1.00494 -0.0602278 0)
(1.00325 -0.061268 0)
(1.00147 -0.0621868 0)
(0.999609 -0.0629803 0)
(0.997676 -0.0636455 0)
(0.995684 -0.0641809 0)
(0.993646 -0.0645864 0)
(0.991575 -0.064863 0)
(0.989483 -0.0650133 0)
(0.987383 -0.0650409 0)
(0.985287 -0.0649507 0)
(0.983204 -0.0647485 0)
(0.981145 -0.0644407 0)
(0.97912 -0.0640343 0)
(0.977136 -0.063537 0)
(0.975199 -0.0629569 0)
(0.973316 -0.0623027 0)
(0.971492 -0.0615833 0)
(0.969732 -0.0608074 0)
(0.968039 -0.0599834 0)
(0.966416 -0.059119 0)
(0.964863 -0.0582212 0)
(0.96338 -0.0572966 0)
(0.961962 -0.0563517 0)
(0.960609 -0.0553928 0)
(0.959319 -0.0544261 0)
(0.958094 -0.053457 0)
(0.956932 -0.0524905 0)
(0.955834 -0.0515308 0)
(0.954798 -0.0505816 0)
(0.953822 -0.0496462 0)
(0.952904 -0.0487273 0)
(0.952041 -0.0478275 0)
(0.951231 -0.0469489 0)
(0.95047 -0.0460933 0)
(0.949758 -0.0452624 0)
(1.01069 -0.000881602 0)
(1.01079 -0.00295052 0)
(1.01098 -0.00472681 0)
(1.01123 -0.00664429 0)
(1.01156 -0.00847779 0)
(1.01194 -0.010338 0)
(1.01236 -0.0122059 0)
(1.01283 -0.0140911 0)
(1.01332 -0.0159989 0)
(1.01383 -0.0179318 0)
(1.01435 -0.0198915 0)
(1.01486 -0.0218783 0)
(1.01537 -0.0238915 0)
(1.01585 -0.0259296 0)
(1.0163 -0.0279905 0)
(1.0167 -0.0300712 0)
(1.01705 -0.0321686 0)
(1.01734 -0.0342788 0)
(1.01756 -0.0363974 0)
(1.01769 -0.0385199 0)
(1.01773 -0.040641 0)
(1.01766 -0.0427551 0)
(1.01749 -0.0448562 0)
(1.01719 -0.0469376 0)
(1.01677 -0.0489921 0)
(1.01622 -0.051012 0)
(1.01553 -0.052989 0)
(1.01469 -0.0549144 0)
(1.01372 -0.0567791 0)
(1.01259 -0.0585735 0)
(1.01133 -0.0602879 0)
(1.00992 -0.0619128 0)
(1.00838 -0.0634388 0)
(1.00671 -0.0648569 0)
(1.00491 -0.0661589 0)
(1.00301 -0.0673373 0)
(1.00099 -0.0683858 0)
(0.998893 -0.0692991 0)
(0.996714 -0.0700736 0)
(0.99447 -0.070707 0)
(0.992176 -0.0711987 0)
(0.989847 -0.0715494 0)
(0.987495 -0.0717617 0)
(0.985134 -0.071839 0)
(0.982779 -0.0717865 0)
(0.98044 -0.0716104 0)
(0.97813 -0.0713179 0)
(0.975857 -0.070917 0)
(0.973631 -0.0704162 0)
(0.97146 -0.0698243 0)
(0.969348 -0.0691498 0)
(0.967302 -0.0684014 0)
(0.965322 -0.067588 0)
(0.963413 -0.0667188 0)
(0.961577 -0.065803 0)
(0.959819 -0.0648497 0)
(0.958142 -0.0638672 0)
(0.95655 -0.0628628 0)
(0.955041 -0.0618429 0)
(0.953614 -0.0608135 0)
(0.952264 -0.0597802 0)
(0.950987 -0.0587482 0)
(0.94978 -0.0577222 0)
(0.948642 -0.0567068 0)
(0.947568 -0.0557057 0)
(0.946556 -0.0547222 0)
(0.945605 -0.0537594 0)
(0.944711 -0.0528197 0)
(0.943871 -0.0519053 0)
(1.01147 -0.00089986 0)
(1.01158 -0.00300481 0)
(1.01178 -0.00481633 0)
(1.01206 -0.00677339 0)
(1.01241 -0.00864635 0)
(1.01283 -0.0105513 0)
(1.0133 -0.0124676 0)
(1.01381 -0.014406 0)
(1.01435 -0.016372 0)
(1.01492 -0.018369 0)
(1.01549 -0.0203987 0)
(1.01607 -0.0224619 0)
(1.01663 -0.0245583 0)
(1.01718 -0.0266867 0)
(1.01769 -0.0288451 0)
(1.01817 -0.0310311 0)
(1.01859 -0.0332417 0)
(1.01895 -0.0354734 0)
(1.01923 -0.0377222 0)
(1.01943 -0.039984 0)
(1.01954 -0.0422539 0)
(1.01954 -0.0445269 0)
(1.01942 -0.0467973 0)
(1.01919 -0.049059 0)
(1.01882 -0.051305 0)
(1.01831 -0.0535281 0)
(1.01766 -0.05572 0)
(1.01686 -0.057872 0)
(1.0159 -0.0599745 0)
(1.01479 -0.0620176 0)
(1.01351 -0.0639907 0)
(1.01208 -0.0658831 0)
(1.0105 -0.067684 0)
(1.00876 -0.0693825 0)
(1.00688 -0.0709682 0)
(1.00486 -0.0724315 0)
(1.00272 -0.0737635 0)
(1.00047 -0.0749564 0)
(0.99811 -0.0760041 0)
(0.995669 -0.0769017 0)
(0.993157 -0.077646 0)
(0.99059 -0.0782357 0)
(0.987984 -0.0786708 0)
(0.985353 -0.0789535 0)
(0.982715 -0.0790872 0)
(0.980082 -0.079077 0)
(0.977469 -0.0789292 0)
(0.974888 -0.0786511 0)
(0.972351 -0.0782512 0)
(0.969867 -0.077739 0)
(0.967445 -0.0771248 0)
(0.965093 -0.0764194 0)
(0.962819 -0.0756337 0)
(0.96063 -0.074778 0)
(0.958529 -0.0738617 0)
(0.956515 -0.0728937 0)
(0.954586 -0.0718827 0)
(0.952739 -0.0708374 0)
(0.950974 -0.0697667 0)
(0.94929 -0.0686788 0)
(0.947691 -0.067581 0)
(0.946176 -0.06648 0)
(0.944744 -0.0653812 0)
(0.943394 -0.0642898 0)
(0.942122 -0.0632102 0)
(0.940926 -0.0621463 0)
(0.939801 -0.0611015 0)
(0.938746 -0.0600791 0)
(0.937755 -0.0590817 0)
(1.01222 -0.000915552 0)
(1.01234 -0.00305058 0)
(1.01256 -0.00489219 0)
(1.01286 -0.00688321 0)
(1.01324 -0.00879015 0)
(1.0137 -0.0107342 0)
(1.01421 -0.0126932 0)
(1.01477 -0.0146787 0)
(1.01536 -0.0166969 0)
(1.01598 -0.0187515 0)
(1.01661 -0.0208447 0)
(1.01725 -0.0229776 0)