/*--------------------------------*- C++ -*----------------------------------*\
  =========                 |
  \\      /  F ield         | OpenFOAM: The Open Source CFD Toolbox
   \\    /   O peration     | Website:  https://openfoam.org
    \\  /    A nd           | Version:  10
     \\/     M anipulation  |
\*---------------------------------------------------------------------------*/
FoamFile
{
    format      ascii;
    class       volVectorField;
    location    "180";
    object      U;
}
// * * * * * * * * * * * * * * * * * * * * * * * * * * * * * * * * * * * * * //

dimensions      [0 1 -1 0 0 0 0];

internalField   nonuniform List<vector> 
66268
(
(1 -4.36291e-05 0)
(1 -0.000160089 0)
(1 -0.000255667 0)
(1 -0.000356105 0)
(1 -0.000454802 0)
(1 -0.000552518 0)
(1 -0.000649963 0)
(1 -0.000747263 0)
(1 -0.000844391 0)
(1 -0.000941253 0)
(1 -0.00103767 0)
(1 -0.00113337 0)
(1 -0.00122804 0)
(1 -0.00132129 0)
(1 -0.0014127 0)
(1 -0.00150184 0)
(1 -0.00158826 0)
(0.999999 -0.0016715 0)
(0.999999 -0.00175113 0)
(0.999999 -0.00182676 0)
(0.999999 -0.00189801 0)
(0.999999 -0.00196456 0)
(0.999998 -0.00202614 0)
(0.999998 -0.00208254 0)
(0.999998 -0.00213361 0)
(0.999998 -0.00217925 0)
(0.999998 -0.00221942 0)
(0.999997 -0.00225416 0)
(0.999997 -0.00228352 0)
(0.999997 -0.00230764 0)
(0.999997 -0.00232667 0)
(0.999997 -0.00234083 0)
(0.999997 -0.00235035 0)
(0.999996 -0.00235552 0)
(0.999996 -0.00235662 0)
(0.999996 -0.00235399 0)
(0.999997 -0.00234796 0)
(0.999997 -0.00233887 0)
(0.999997 -0.00232701 0)
(0.999997 -0.00231266 0)
(0.999997 -0.00229603 0)
(0.999998 -0.00227731 0)
(0.999998 -0.00225664 0)
(0.999998 -0.00223416 0)
(0.999998 -0.00221001 0)
(0.999996 -0.00218439 0)
(0.999991 -0.00215753 0)
(0.999983 -0.00212979 0)
(0.99997 -0.00210159 0)
(0.999951 -0.00207339 0)
(0.99993 -0.00204558 0)
(0.999907 -0.00201841 0)
(0.999888 -0.00199193 0)
(0.999875 -0.00196602 0)
(0.999869 -0.00194048 0)
(0.999871 -0.00191513 0)
(0.999878 -0.00188988 0)
(0.99989 -0.00186473 0)
(0.999903 -0.00183975 0)
(0.999916 -0.00181509 0)
(0.999929 -0.00179087 0)
(0.99994 -0.00176722 0)
(0.99995 -0.00174424 0)
(0.999958 -0.001722 0)
(0.999965 -0.00170056 0)
(0.99997 -0.00167994 0)
(0.999974 -0.00166016 0)
(0.999978 -0.00164124 0)
(0.99998 -0.0016232 0)
(1.00019 -0.000125824 0)
(1.00019 -0.000454694 0)
(1.00019 -0.000724232 0)
(1.0002 -0.00101074 0)
(1.0002 -0.00129152 0)
(1.00021 -0.00156988 0)
(1.00022 -0.00184808 0)
(1.00022 -0.00212643 0)
(1.00023 -0.00240487 0)
(1.00024 -0.00268319 0)
(1.00025 -0.00296091 0)
(1.00026 -0.00323729 0)
(1.00026 -0.00351141 0)
(1.00027 -0.00378218 0)
(1.00027 -0.0040484 0)
(1.00027 -0.0043088 0)
(1.00028 -0.00456205 0)
(1.00028 -0.00480683 0)
(1.00027 -0.00504187 0)
(1.00027 -0.00526593 0)
(1.00026 -0.00547793 0)
(1.00026 -0.00567685 0)
(1.00025 -0.00586186 0)
(1.00023 -0.00603227 0)
(1.00022 -0.00618756 0)
(1.0002 -0.00632738 0)
(1.00019 -0.00645155 0)
(1.00017 -0.00656007 0)
(1.00015 -0.00665307 0)
(1.00012 -0.00673084 0)
(1.0001 -0.00679383 0)
(1.00008 -0.00684255 0)
(1.00005 -0.00687766 0)
(1.00003 -0.00689985 0)
(1 -0.00690985 0)
(0.999978 -0.0069084 0)
(0.999952 -0.00689623 0)
(0.999926 -0.00687408 0)
(0.999901 -0.00684273 0)
(0.999875 -0.006803 0)
(0.999849 -0.0067558 0)
(0.999824 -0.0067021 0)
(0.999798 -0.0066429 0)
(0.999773 -0.00657921 0)
(0.999749 -0.00651197 0)
(0.999727 -0.006442 0)
(0.999708 -0.00636997 0)
(0.999696 -0.00629631 0)
(0.999691 -0.00622129 0)
(0.999695 -0.00614501 0)
(0.999705 -0.00606758 0)
(0.999716 -0.00598924 0)
(0.999723 -0.0059104 0)
(0.999723 -0.00583167 0)
(0.999712 -0.00575369 0)
(0.999692 -0.00567699 0)
(0.999666 -0.00560195 0)
(0.999635 -0.00552877 0)
(0.999603 -0.00545752 0)
(0.999573 -0.00538818 0)
(0.999545 -0.00532072 0)
(0.99952 -0.0052551 0)
(0.999498 -0.0051913 0)
(0.999479 -0.00512933 0)
(0.999463 -0.00506919 0)
(0.999449 -0.00501091 0)
(0.999437 -0.00495451 0)
(0.999426 -0.00490004 0)
(0.999416 -0.00484758 0)
(1.00055 -0.000200475 0)
(1.00055 -0.000714796 0)
(1.00056 -0.00113593 0)
(1.00057 -0.00158861 0)
(1.00059 -0.00203061 0)
(1.00061 -0.0024691 0)
(1.00063 -0.00290828 0)
(1.00065 -0.00334831 0)
(1.00068 -0.00378917 0)
(1.0007 -0.0042307 0)
(1.00073 -0.00467214 0)
(1.00075 -0.00511239 0)
(1.00077 -0.00555003 0)
(1.00079 -0.00598335 0)
(1.0008 -0.00641047 0)
(1.00081 -0.00682935 0)
(1.00082 -0.00723787 0)
(1.00082 -0.00763388 0)
(1.00081 -0.0080153 0)
(1.0008 -0.0083801 0)
(1.00078 -0.00872643 0)
(1.00076 -0.00905259 0)
(1.00073 -0.00935714 0)
(1.0007 -0.00963885 0)
(1.00066 -0.00989676 0)
(1.00061 -0.0101302 0)
(1.00056 -0.0103388 0)
(1.00051 -0.0105224 0)
(1.00045 -0.0106812 0)
(1.00038 -0.0108155 0)
(1.00032 -0.0109259 0)
(1.00025 -0.0110133 0)
(1.00018 -0.0110784 0)
(1.00011 -0.0111225 0)
(1.00003 -0.0111467 0)
(0.999961 -0.0111525 0)
(0.999888 -0.0111411 0)
(0.999815 -0.0111143 0)
(0.999743 -0.0110733 0)
(0.999671 -0.0110198 0)
(0.999601 -0.0109552 0)
(0.999533 -0.0108805 0)
(0.999466 -0.0107969 0)
(0.999401 -0.0107053 0)
(0.999338 -0.0106065 0)
(0.999275 -0.0105013 0)
(0.999212 -0.0103905 0)
(0.999147 -0.010275 0)
(0.999078 -0.0101557 0)
(0.999004 -0.0100338 0)
(0.998929 -0.00991022 0)
(0.998855 -0.00978579 0)
(0.998789 -0.00966115 0)
(0.998735 -0.00953675 0)
(0.998693 -0.00941288 0)
(0.998664 -0.00928986 0)
(0.998644 -0.00916801 0)
(0.998629 -0.00904775 0)
(0.998618 -0.00892949 0)
(0.998607 -0.00881364 0)
(0.998596 -0.00870054 0)
(0.998584 -0.00859047 0)
(0.998571 -0.00848362 0)
(0.998557 -0.00838016 0)
(0.998542 -0.00828019 0)
(0.998527 -0.00818375 0)
(0.998513 -0.00809088 0)
(0.998498 -0.00800163 0)
(0.998483 -0.007916 0)
(1.00102 -0.000270689 0)
(1.00103 -0.000956086 0)
(1.00105 -0.00151897 0)
(1.00108 -0.00212759 0)
(1.00111 -0.00271925 0)
(1.00115 -0.00330682 0)
(1.00119 -0.00389594 0)
(1.00123 -0.00448634 0)
(1.00128 -0.00507832 0)
(1.00132 -0.00567176 0)
(1.00137 -0.00626571 0)
(1.00141 -0.00685875 0)
(1.00145 -0.00744906 0)
(1.00148 -0.00803442 0)
(1.00151 -0.00861232 0)
(1.00153 -0.00918004 0)
(1.00154 -0.00973475 0)
(1.00154 -0.0102735 0)
(1.00153 -0.0107935 0)
(1.00151 -0.0112919 0)
(1.00148 -0.0117661 0)
(1.00144 -0.0122137 0)
(1.00139 -0.0126326 0)
(1.00132 -0.0130211 0)
(1.00125 -0.0133776 0)
(1.00116 -0.0137012 0)
(1.00107 -0.0139912 0)
(1.00097 -0.0142471 0)
(1.00085 -0.014469 0)
(1.00074 -0.0146573 0)
(1.00061 -0.0148127 0)
(1.00049 -0.014936 0)
(1.00035 -0.0150284 0)
(1.00022 -0.0150915 0)
(1.00008 -0.0151266 0)
(0.999948 -0.0151356 0)
(0.999811 -0.0151201 0)
(0.999675 -0.0150817 0)
(0.999541 -0.0150223 0)
(0.999408 -0.0149435 0)
(0.999278 -0.0148469 0)
(0.999151 -0.0147345 0)
(0.999028 -0.0146081 0)
(0.998907 -0.0144697 0)
(0.998792 -0.0143212 0)
(0.998681 -0.0141645 0)
(0.998577 -0.0140013 0)
(0.998483 -0.0138332 0)
(0.998401 -0.0136614 0)
(0.998331 -0.0134871 0)
(0.99827 -0.0133109 0)
(0.998214 -0.0131338 0)
(0.998157 -0.0129565 0)
(0.998094 -0.01278 0)
(0.998022 -0.0126051 0)
(0.997943 -0.0124325 0)
(0.997859 -0.0122628 0)
(0.997775 -0.0120964 0)
(0.997694 -0.0119336 0)
(0.997618 -0.0117745 0)
(0.997547 -0.0116194 0)
(0.997483 -0.0114683 0)
(0.997425 -0.0113213 0)
(0.997372 -0.0111787 0)
(0.997323 -0.0110404 0)
(0.997279 -0.0109067 0)
(0.997238 -0.0107775 0)
(0.997201 -0.010653 0)
(0.997166 -0.0105333 0)
(1.00158 -0.000339414 0)
(1.00159 -0.00119221 0)
(1.00163 -0.00189702 0)
(1.00167 -0.00265918 0)
(1.00172 -0.00339693 0)
(1.00178 -0.00413067 0)
(1.00184 -0.00486613 0)
(1.00191 -0.00560271 0)
(1.00198 -0.00634127 0)
(1.00205 -0.00708165 0)
(1.00212 -0.00782276 0)
(1.00219 -0.00856297 0)
(1.00225 -0.00930008 0)
(1.00231 -0.0100314 0)
(1.00235 -0.010754 0)
(1.00238 -0.0114645 0)
(1.0024 -0.0121594 0)
(1.00241 -0.012835 0)
(1.0024 -0.0134879 0)
(1.00237 -0.0141144 0)
(1.00233 -0.0147113 0)
(1.00226 -0.0152755 0)
(1.00218 -0.0158042 0)
(1.00209 -0.016295 0)
(1.00197 -0.016746 0)
(1.00184 -0.0171557 0)
(1.0017 -0.017523 0)
(1.00154 -0.0178473 0)
(1.00137 -0.0181286 0)
(1.00118 -0.0183671 0)
(1.00099 -0.0185635 0)
(1.00079 -0.018719 0)
(1.00058 -0.0188351 0)
(1.00037 -0.0189134 0)
(1.00015 -0.0189559 0)
(0.999938 -0.0189647 0)
(0.99972 -0.0189421 0)
(0.999504 -0.0188906 0)
(0.999289 -0.0188127 0)
(0.999076 -0.018711 0)
(0.998868 -0.0185882 0)
(0.998663 -0.0184468 0)
(0.998463 -0.018289 0)
(0.998269 -0.0181168 0)
(0.99808 -0.0179321 0)
(0.997896 -0.0177363 0)
(0.997716 -0.017531 0)
(0.997537 -0.0173175 0)
(0.997359 -0.0170972 0)
(0.99718 -0.0168714 0)
(0.997003 -0.0166417 0)
(0.996833 -0.0164096 0)
(0.996676 -0.0161762 0)
(0.996536 -0.0159429 0)
(0.996414 -0.0157106 0)
(0.996311 -0.0154801 0)
(0.99622 -0.0152523 0)
(0.996139 -0.0150279 0)
(0.996064 -0.0148077 0)
(0.995993 -0.0145923 0)
(0.995923 -0.0143821 0)
(0.995855 -0.0141775 0)
(0.995789 -0.013979 0)
(0.995725 -0.0137865 0)
(0.995663 -0.0136004 0)
(0.995603 -0.0134207 0)
(0.995546 -0.0132475 0)
(0.995492 -0.0130808 0)
(0.995441 -0.0129207 0)
(1.0022 -0.000407688 0)
(1.00222 -0.0014264 0)
(1.00227 -0.00227404 0)
(1.00232 -0.0031885 0)
(1.00239 -0.0040706 0)
(1.00248 -0.00494926 0)
(1.00257 -0.00582906 0)
(1.00266 -0.00670948 0)
(1.00277 -0.00759194 0)
(1.00287 -0.00847624 0)
(1.00297 -0.00936122 0)
(1.00307 -0.0102451 0)
(1.00316 -0.0111253 0)
(1.00323 -0.0119989 0)
(1.0033 -0.0128625 0)
(1.00335 -0.0137121 0)
(1.00338 -0.0145438 0)
(1.0034 -0.0153532 0)
(1.00339 -0.0161362 0)
(1.00335 -0.0168885 0)
(1.0033 -0.0176061 0)
(1.00322 -0.0182854 0)
(1.00311 -0.0189228 0)
(1.00297 -0.0195154 0)
(1.00282 -0.0200606 0)
(1.00264 -0.0205566 0)
(1.00243 -0.0210018 0)
(1.00221 -0.0213953 0)
(1.00197 -0.0217369 0)
(1.00171 -0.0220267 0)
(1.00143 -0.0222654 0)
(1.00114 -0.0224541 0)
(1.00085 -0.0225944 0)
(1.00054 -0.0226881 0)
(1.00023 -0.0227375 0)
(0.99992 -0.0227449 0)
(0.999605 -0.022713 0)
(0.999291 -0.0226445 0)
(0.998979 -0.0225421 0)
(0.99867 -0.0224086 0)
(0.998367 -0.0222466 0)
(0.998069 -0.022059 0)
(0.997778 -0.0218485 0)
(0.997495 -0.021618 0)
(0.997221 -0.0213704 0)
(0.996957 -0.0211088 0)
(0.996704 -0.0208361 0)
(0.996464 -0.0205549 0)
(0.996241 -0.0202678 0)
(0.996034 -0.0199768 0)
(0.995843 -0.0196836 0)
(0.995663 -0.0193897 0)
(0.995487 -0.019096 0)
(0.995311 -0.0188035 0)
(0.995133 -0.0185133 0)
(0.994953 -0.0182261 0)
(0.994775 -0.0179428 0)
(0.994603 -0.0176641 0)
(0.99444 -0.0173906 0)
(0.994287 -0.0171227 0)
(0.994145 -0.0168609 0)
(0.994013 -0.0166058 0)
(0.993892 -0.0163575 0)
(0.99378 -0.0161165 0)
(0.993675 -0.015883 0)
(0.993578 -0.0156572 0)
(0.993488 -0.0154391 0)
(0.993404 -0.015229 0)
(0.993326 -0.015027 0)
(1.0029 -0.000474593 0)
(1.00292 -0.00165369 0)
(1.00298 -0.0026401 0)
(1.00305 -0.00370215 0)
(1.00315 -0.00472407 0)
(1.00325 -0.00574356 0)
(1.00337 -0.00676341 0)
(1.0035 -0.00778353 0)
(1.00364 -0.00880587 0)
(1.00377 -0.00983021 0)
(1.00391 -0.0108554 0)
(1.00404 -0.0118795 0)
(1.00416 -0.0128999 0)
(1.00427 -0.0139133 0)
(1.00436 -0.0149158 0)
(1.00443 -0.0159033 0)
(1.00448 -0.0168712 0)
(1.0045 -0.0178146 0)
(1.00449 -0.0187288 0)
(1.00446 -0.0196089 0)
(1.00439 -0.0204503 0)
(1.00428 -0.0212486 0)
(1.00415 -0.0219997 0)
(1.00397 -0.0226999 0)
(1.00377 -0.0233461 0)
(1.00353 -0.0239358 0)
(1.00326 -0.0244669 0)
(1.00297 -0.0249382 0)
(1.00265 -0.0253489 0)
(1.0023 -0.0256989 0)
(1.00193 -0.0259886 0)
(1.00155 -0.0262192 0)
(1.00115 -0.0263922 0)
(1.00073 -0.0265096 0)
(1.00031 -0.026574 0)
(0.999888 -0.026588 0)
(0.999459 -0.0265548 0)
(0.999029 -0.0264776 0)
(0.998601 -0.0263601 0)
(0.998177 -0.0262058 0)
(0.997758 -0.0260186 0)
(0.997347 -0.025802 0)
(0.996944 -0.0255596 0)
(0.996552 -0.0252946 0)
(0.99617 -0.02501 0)
(0.9958 -0.0247082 0)
(0.995441 -0.0243915 0)
(0.995092 -0.0240621 0)
(0.994751 -0.0237219 0)
(0.994419 -0.0233728 0)
(0.994095 -0.023017 0)
(0.993784 -0.0226568 0)
(0.993492 -0.0222943 0)
(0.993222 -0.0219316 0)
(0.992976 -0.0215705 0)
(0.992753 -0.0212126 0)
(0.992549 -0.0208591 0)
(0.992359 -0.0205112 0)
(0.992181 -0.0201699 0)
(0.992012 -0.0198359 0)
(0.99185 -0.0195099 0)
(0.991695 -0.0191925 0)
(0.991547 -0.018884 0)
(0.991406 -0.0185849 0)
(0.991272 -0.0182954 0)
(0.991146 -0.0180156 0)
(0.991026 -0.0177457 0)
(0.990913 -0.0174858 0)
(0.990806 -0.0172359 0)
(1.00365 -0.000538088 0)
(1.00369 -0.00186635 0)
(1.00376 -0.00298197 0)
(1.00385 -0.00418218 0)
(1.00397 -0.00533527 0)
(1.0041 -0.00648768 0)
(1.00426 -0.00764001 0)
(1.00442 -0.00879303 0)
(1.00459 -0.00994911 0)
(1.00476 -0.0111081 0)
(1.00494 -0.0122689 0)
(1.0051 -0.0134297 0)
(1.00526 -0.0145876 0)
(1.0054 -0.0157393 0)
(1.00552 -0.0168805 0)
(1.00562 -0.0180069 0)
(1.00569 -0.0191133 0)
(1.00572 -0.0201945 0)
(1.00572 -0.0212453 0)
(1.00568 -0.0222601 0)
(1.0056 -0.0232337 0)
(1.00548 -0.0241609 0)
(1.00531 -0.0250369 0)
(1.0051 -0.0258574 0)
(1.00485 -0.0266185 0)
(1.00455 -0.0273169 0)
(1.00421 -0.0279499 0)
(1.00384 -0.0285156 0)
(1.00343 -0.0290126 0)
(1.00299 -0.0294405 0)
(1.00252 -0.0297993 0)
(1.00202 -0.0300899 0)
(1.00151 -0.0303137 0)
(1.00098 -0.0304727 0)
(1.00043 -0.0305692 0)
(0.99988 -0.0306062 0)
(0.999321 -0.0305869 0)
(0.998761 -0.0305146 0)
(0.998203 -0.0303929 0)
(0.997649 -0.0302254 0)
(0.997102 -0.0300158 0)
(0.996565 -0.0297677 0)
(0.99604 -0.0294848 0)
(0.995528 -0.0291709 0)
(0.995031 -0.0288301 0)
(0.99455 -0.0284665 0)
(0.994087 -0.0280844 0)
(0.993643 -0.0276878 0)
(0.993221 -0.0272805 0)
(0.992822 -0.026866 0)
(0.992445 -0.026447 0)
(0.992087 -0.0260257 0)
(0.991744 -0.0256038 0)
(0.99141 -0.0251825 0)
(0.991083 -0.0247633 0)
(0.990763 -0.0243472 0)
(0.990453 -0.0239356 0)
(0.990157 -0.0235297 0)
(0.989876 -0.0231304 0)
(0.989613 -0.0227388 0)
(0.989366 -0.0223556 0)
(0.989136 -0.0219816 0)
(0.988921 -0.0216174 0)
(0.988721 -0.0212636 0)
(0.988534 -0.0209204 0)
(0.988359 -0.0205884 0)
(0.988196 -0.0202676 0)
(0.988043 -0.0199583 0)
(0.9879 -0.0196607 0)
(1.00446 -0.000596172 0)
(1.0045 -0.002058 0)
(1.00459 -0.00328962 0)
(1.0047 -0.00461494 0)
(1.00484 -0.00588734 0)
(1.00501 -0.00716176 0)
(1.0052 -0.00843654 0)
(1.0054 -0.00971355 0)
(1.00561 -0.0109956 0)
(1.00583 -0.0122826 0)
(1.00604 -0.0135738 0)
(1.00625 -0.0148673 0)
(1.00645 -0.0161604 0)
(1.00663 -0.0174495 0)
(1.00678 -0.0187303 0)
(1.00691 -0.0199981 0)
(1.007 -0.0212476 0)
(1.00706 -0.0224731 0)
(1.00707 -0.0236688 0)
(1.00703 -0.0248286 0)
(1.00694 -0.0259466 0)
(1.00681 -0.027017 0)
(1.00661 -0.0280341 0)
(1.00637 -0.0289927 0)
(1.00607 -0.0298881 0)
(1.00571 -0.0307161 0)
(1.00531 -0.0314731 0)
(1.00485 -0.0321565 0)
(1.00435 -0.032764 0)
(1.00381 -0.0332945 0)
(1.00323 -0.0337474 0)
(1.00262 -0.034123 0)
(1.00198 -0.0344222 0)
(1.00132 -0.0346465 0)
(1.00064 -0.0347983 0)
(0.999946 -0.0348803 0)
(0.999244 -0.0348958 0)
(0.998539 -0.0348486 0)
(0.997833 -0.0347427 0)
(0.997132 -0.0345827 0)
(0.996437 -0.0343732 0)
(0.995752 -0.0341191 0)
(0.99508 -0.0338253 0)
(0.994422 -0.0334966 0)
(0.993782 -0.0331372 0)
(0.993159 -0.032751 0)
(0.992557 -0.0323414 0)
(0.991974 -0.0319115 0)
(0.991411 -0.0314641 0)
(0.990866 -0.0310021 0)
(0.99034 -0.0305282 0)
(0.989834 -0.0300456 0)
(0.989353 -0.0295576 0)
(0.9889 -0.0290672 0)
(0.988479 -0.0285772 0)
(0.988086 -0.02809 0)
(0.987721 -0.0276074 0)
(0.987378 -0.0271311 0)
(0.987055 -0.0266624 0)
(0.986749 -0.0262027 0)
(0.986458 -0.0257527 0)
(0.986182 -0.0253136 0)
(0.98592 -0.0248859 0)
(0.985672 -0.0244703 0)
(0.985438 -0.0240673 0)
(0.985218 -0.0236772 0)
(0.98501 -0.0233002 0)
(0.984815 -0.0229368 0)
(0.984632 -0.0225869 0)
(1.0053 -0.000647547 0)
(1.00535 -0.00222523 0)
(1.00545 -0.0035582 0)
(1.00558 -0.00499378 0)
(1.00576 -0.00637199 0)
(1.00596 -0.00775596 0)
(1.00618 -0.00914185 0)
(1.00643 -0.0105328 0)
(1.00668 -0.0119319 0)
(1.00694 -0.0133395 0)
(1.00721 -0.0147551 0)
(1.00746 -0.016177 0)
(1.0077 -0.0176025 0)
(1.00793 -0.0190281 0)
(1.00812 -0.0204495 0)
(1.00829 -0.0218617 0)
(1.00841 -0.0232592 0)
(1.00849 -0.024636 0)
(1.00852 -0.0259857 0)
(1.00849 -0.0273019 0)
(1.00841 -0.0285779 0)
(1.00826 -0.0298071 0)
(1.00805 -0.0309831 0)
(1.00777 -0.0320996 0)
(1.00743 -0.033151 0)
(1.00702 -0.0341321 0)
(1.00655 -0.0350383 0)
(1.00602 -0.0358657 0)
(1.00543 -0.0366111 0)
(1.00479 -0.0372724 0)
(1.0041 -0.0378481 0)
(1.00336 -0.0383375 0)
(1.0026 -0.038741 0)
(1.0018 -0.0390598 0)
(1.00097 -0.0392956 0)
(1.00013 -0.0394512 0)
(0.99927 -0.0395298 0)
(0.998405 -0.039535 0)
(0.997538 -0.0394711 0)
(0.996673 -0.0393423 0)
(0.995815 -0.0391531 0)
(0.994968 -0.0389081 0)
(0.994137 -0.0386117 0)
(0.993323 -0.0382688 0)
(0.992531 -0.037884 0)
(0.991762 -0.0374627 0)
(0.991018 -0.0370101 0)
(0.990302 -0.0365317 0)
(0.989615 -0.0360328 0)
(0.988959 -0.0355183 0)
(0.988335 -0.0349923 0)
(0.987741 -0.0344582 0)
(0.987173 -0.0339189 0)
(0.986627 -0.0333766 0)
(0.986101 -0.0328333 0)
(0.985592 -0.0322913 0)
(0.985104 -0.0317524 0)
(0.984638 -0.0312188 0)
(0.984196 -0.030692 0)
(0.983779 -0.0301737 0)
(0.983388 -0.0296652 0)
(0.983021 -0.0291676 0)
(0.982676 -0.0286819 0)
(0.982354 -0.028209 0)
(0.982052 -0.0277495 0)
(0.981768 -0.027304 0)
(0.981503 -0.0268728 0)
(0.981254 -0.0264565 0)
(0.981021 -0.0260552 0)
(1.00616 -0.000691668 0)
(1.00622 -0.00236724 0)
(1.00634 -0.00378703 0)
(1.00649 -0.00531774 0)
(1.0067 -0.00678792 0)
(1.00693 -0.00826857 0)
(1.0072 -0.00975375 0)
(1.00748 -0.0112479 0)
(1.00779 -0.0127547 0)
(1.0081 -0.0142748 0)
(1.00841 -0.015808 0)
(1.00872 -0.017353 0)
(1.00901 -0.0189072 0)
(1.00928 -0.0204673 0)
(1.00953 -0.022029 0)
(1.00974 -0.0235872 0)
(1.0099 -0.0251362 0)
(1.01001 -0.0266699 0)
(1.01007 -0.0281814 0)
(1.01006 -0.0296639 0)
(1.00999 -0.0311099 0)
(1.00984 -0.0325123 0)
(1.00962 -0.0338636 0)
(1.00932 -0.0351568 0)
(1.00895 -0.036385 0)
(1.00849 -0.037542 0)
(1.00796 -0.0386218 0)
(1.00736 -0.0396194 0)
(1.00669 -0.0405304 0)
(1.00595 -0.0413513 0)
(1.00515 -0.0420796 0)
(1.00429 -0.0427136 0)
(1.00339 -0.0432527 0)
(1.00245 -0.0436972 0)
(1.00148 -0.0440481 0)
(1.00047 -0.0443075 0)
(0.999451 -0.044478 0)
(0.998416 -0.0445631 0)
(0.997374 -0.0445667 0)
(0.996333 -0.0444934 0)
(0.995296 -0.0443484 0)
(0.99427 -0.0441372 0)
(0.993258 -0.0438658 0)
(0.992265 -0.0435402 0)
(0.991294 -0.0431664 0)
(0.990349 -0.04275 0)
(0.989431 -0.0422958 0)
(0.988542 -0.0418085 0)
(0.987684 -0.041292 0)
(0.986855 -0.0407504 0)
(0.986057 -0.0401875 0)
(0.985288 -0.0396076 0)
(0.984553 -0.0390152 0)
(0.983855 -0.0384145 0)
(0.983197 -0.0378095 0)
(0.982578 -0.0372035 0)
(0.981996 -0.0365994 0)
(0.981449 -0.0359997 0)
(0.980932 -0.0354064 0)
(0.980443 -0.0348214 0)
(0.97998 -0.0342465 0)
(0.979541 -0.033683 0)
(0.979127 -0.0331322 0)
(0.978735 -0.0325953 0)
(0.978366 -0.032073 0)
(0.978019 -0.0315661 0)
(0.977692 -0.0310751 0)
(0.977385 -0.0306007 0)
(0.977097 -0.030143 0)
(1.00702 -0.000728638 0)
(1.00709 -0.00248507 0)
(1.00723 -0.00397803 0)
(1.00741 -0.00558929 0)
(1.00764 -0.00713805 0)
(1.00792 -0.00870271 0)
(1.00823 -0.0102754 0)
(1.00856 -0.0118619 0)
(1.00891 -0.0134664 0)
(1.00928 -0.0150901 0)
(1.00965 -0.0167333 0)
(1.01001 -0.0183948 0)
(1.01036 -0.0200725 0)
(1.01069 -0.0217633 0)
(1.01099 -0.0234628 0)
(1.01125 -0.0251663 0)
(1.01147 -0.0268679 0)
(1.01162 -0.0285611 0)
(1.01172 -0.0302392 0)
(1.01174 -0.0318946 0)
(1.01169 -0.0335195 0)
(1.01156 -0.035106 0)
(1.01134 -0.0366459 0)
(1.01103 -0.0381311 0)
(1.01064 -0.0395539 0)
(1.01015 -0.0409065 0)
(1.00957 -0.042182 0)
(1.0089 -0.0433738 0)
(1.00815 -0.0444762 0)
(1.00732 -0.0454842 0)
(1.00642 -0.046394 0)
(1.00545 -0.0472024 0)
(1.00441 -0.0479075 0)
(1.00333 -0.0485084 0)
(1.0022 -0.0490052 0)
(1.00103 -0.049399 0)
(0.999837 -0.0496919 0)
(0.998621 -0.049887 0)
(0.997393 -0.0499882 0)
(0.99616 -0.0499999 0)
(0.994929 -0.0499271 0)
(0.993706 -0.049775 0)
(0.992498 -0.0495491 0)
(0.991311 -0.0492548 0)
(0.990148 -0.0488978 0)
(0.989015 -0.048484 0)
(0.987914 -0.04802 0)
(0.986849 -0.0475124 0)
(0.985822 -0.046968 0)
(0.984835 -0.0463934 0)
(0.983891 -0.0457946 0)
(0.98299 -0.0451768 0)
(0.982129 -0.0445443 0)
(0.981305 -0.0439007 0)
(0.980514 -0.0432495 0)
(0.979755 -0.0425937 0)
(0.979027 -0.0419369 0)
(0.978333 -0.0412819 0)
(0.977674 -0.0406316 0)
(0.97705 -0.0399884 0)
(0.976463 -0.0393545 0)
(0.97591 -0.0387315 0)
(0.975391 -0.0381211 0)
(0.974903 -0.0375245 0)
(0.974444 -0.0369431 0)
(0.974014 -0.0363776 0)
(0.97361 -0.0358289 0)
(0.973232 -0.0352977 0)
(0.972876 -0.0347845 0)
(1.00788 -0.000759072 0)
(1.00796 -0.00258099 0)
(1.00811 -0.00413457 0)
(1.00832 -0.00581295 0)
(1.00859 -0.0074278 0)
(1.0089 -0.00906447 0)
(1.00926 -0.0107133 0)
(1.00964 -0.0123814 0)
(1.01005 -0.0140734 0)
(1.01047 -0.0157913 0)
(1.0109 -0.0175356 0)
(1.01133 -0.0193059 0)
(1.01175 -0.0211003 0)
(1.01214 -0.0229158 0)
(1.0125 -0.0247486 0)
(1.01283 -0.0265938 0)
(1.0131 -0.0284459 0)
(1.01331 -0.0302982 0)
(1.01346 -0.0321438 0)
(1.01352 -0.0339749 0)
(1.01351 -0.0357835 0)
(1.0134 -0.0375608 0)
(1.0132 -0.0392982 0)
(1.0129 -0.0409867 0)
(1.01249 -0.0426174 0)
(1.01198 -0.0441815 0)
(1.01137 -0.0456707 0)
(1.01066 -0.0470771 0)
(1.00984 -0.0483933 0)
(1.00893 -0.0496128 0)
(1.00793 -0.0507301 0)
(1.00684 -0.0517404 0)
(1.00569 -0.0526404 0)
(1.00446 -0.0534275 0)
(1.00317 -0.0541007 0)
(1.00184 -0.05466 0)
(1.00047 -0.0551063 0)
(0.999063 -0.0554419 0)
(0.997639 -0.0556698 0)
(0.996204 -0.0557939 0)
(0.994766 -0.055819 0)
(0.993333 -0.0557504 0)
(0.991913 -0.0555945 0)
(0.990511 -0.055358 0)
(0.989134 -0.0550483 0)
(0.987787 -0.0546725 0)
(0.986473 -0.0542374 0)
(0.985198 -0.0537495 0)
(0.983962 -0.0532143 0)
(0.982767 -0.0526373 0)
(0.981614 -0.0520239 0)
(0.980503 -0.0513796 0)
(0.979436 -0.0507103 0)
(0.978417 -0.0500219 0)
(0.977448 -0.0493201 0)
(0.976532 -0.0486097 0)
(0.975669 -0.0478947 0)
(0.974854 -0.0471788 0)
(0.974084 -0.0464652 0)
(0.973355 -0.0457568 0)
(0.972666 -0.0450561 0)
(0.972013 -0.0443657 0)
(0.971397 -0.0436876 0)
(0.970815 -0.0430235 0)
(0.970266 -0.0423751 0)
(0.96975 -0.0417435 0)
(0.969264 -0.0411299 0)
(0.968807 -0.0405351 0)
(0.968379 -0.0399599 0)
(1.00872 -0.000783882 0)
(1.00881 -0.00265795 0)
(1.00898 -0.00426096 0)
(1.00922 -0.00599448 0)
(1.00952 -0.00766422 0)
(1.00988 -0.00936187 0)
(1.01028 -0.0110761 0)
(1.01072 -0.0128153 0)
(1.01118 -0.0145849 0)
(1.01167 -0.0163872 0)
(1.01217 -0.0182235 0)
(1.01266 -0.0200937 0)
(1.01315 -0.0219965 0)
(1.01361 -0.0239292 0)
(1.01405 -0.0258885 0)
(1.01444 -0.0278695 0)
(1.01478 -0.029867 0)
(1.01506 -0.0318746 0)
(1.01527 -0.0338852 0)
(1.01539 -0.0358911 0)
(1.01542 -0.0378838 0)
(1.01536 -0.0398545 0)
(1.01519 -0.0417937 0)
(1.01491 -0.0436919 0)
(1.01451 -0.0455393 0)
(1.014 -0.0473261 0)
(1.01337 -0.0490426 0)
(1.01262 -0.0506794 0)
(1.01175 -0.0522278 0)
(1.01077 -0.0536795 0)
(1.00969 -0.0550271 0)
(1.0085 -0.0562644 0)
(1.00722 -0.0573859 0)
(1.00586 -0.0583875 0)
(1.00442 -0.0592664 0)
(1.00292 -0.060021 0)
(1.00137 -0.0606509 0)
(0.999777 -0.061157 0)
(0.99815 -0.0615416 0)
(0.996504 -0.061808 0)
(0.994846 -0.0619606 0)
(0.993188 -0.0620046 0)
(0.991537 -0.0619459 0)
(0.989904 -0.0617907 0)
(0.988294 -0.0615452 0)
(0.986716 -0.0612163 0)
(0.985175 -0.0608111 0)
(0.983676 -0.0603373 0)
(0.982224 -0.0598034 0)
(0.980821 -0.0592176 0)
(0.979473 -0.0585882 0)
(0.97818 -0.0579226 0)
(0.976943 -0.057227 0)
(0.975761 -0.056507 0)
(0.974628 -0.0557675 0)
(0.973541 -0.0550134 0)
(0.9725 -0.0542494 0)
(0.971506 -0.0534804 0)
(0.97056 -0.0527105 0)
(0.969664 -0.0519436 0)
(0.968818 -0.0511827 0)
(0.96802 -0.0504308 0)
(0.967268 -0.0496902 0)
(0.966561 -0.048963 0)
(0.965897 -0.0482512 0)
(0.965272 -0.0475564 0)
(0.964686 -0.0468797 0)
(0.964135 -0.0462226 0)
(0.963619 -0.045586 0)
(1.00954 -0.000804029 0)
(1.00964 -0.00271906 0)
(1.00983 -0.00436184 0)
(1.01009 -0.00614019 0)
(1.01043 -0.00785505 0)
(1.01083 -0.00960384 0)
(1.01129 -0.0113738 0)
(1.01178 -0.0131744 0)
(1.01231 -0.0150118 0)
(1.01286 -0.016889 0)
(1.01343 -0.0188078 0)
(1.01399 -0.0207686 0)
(1.01456 -0.0227706 0)
(1.0151 -0.0248118 0)
(1.01561 -0.026889 0)
(1.01608 -0.028998 0)
(1.0165 -0.0311336 0)
(1.01686 -0.0332899 0)
(1.01714 -0.03546 0)
(1.01733 -0.0376361 0)
(1.01742 -0.0398099 0)
(1.01742 -0.0419722 0)
(1.01729 -0.0441134 0)
(1.01705 -0.0462234 0)
(1.01668 -0.0482918 0)
(1.01618 -0.0503076 0)
(1.01555 -0.0522604 0)
(1.01478 -0.0541393 0)
(1.01388 -0.0559341 0)
(1.01285 -0.0576348 0)
(1.0117 -0.0592324 0)
(1.01042 -0.0607185 0)
(1.00904 -0.0620857 0)
(1.00755 -0.063328 0)
(1.00597 -0.0644404 0)
(1.00431 -0.0654196 0)
(1.00258 -0.0662634 0)
(1.00079 -0.0669714 0)
(0.998958 -0.0675443 0)
(0.997092 -0.0679844 0)
(0.995206 -0.0682948 0)
(0.993311 -0.0684802 0)
(0.991418 -0.0685459 0)
(0.989537 -0.0684986 0)
(0.987677 -0.0683456 0)
(0.985846 -0.0680953 0)
(0.984052 -0.0677562 0)
(0.982301 -0.0673363 0)
(0.980597 -0.0668435 0)
(0.978944 -0.066285 0)
(0.977345 -0.0656677 0)
(0.9758 -0.0649988 0)
(0.974311 -0.064286 0)
(0.972881 -0.063537 0)
(0.971516 -0.0627598 0)
(0.97022 -0.0619611 0)
(0.968993 -0.0611471 0)
(0.967834 -0.0603227 0)
(0.966738 -0.0594927 0)
(0.9657 -0.0586614 0)
(0.964718 -0.0578328 0)
(0.963789 -0.0570106 0)
(0.96291 -0.0561981 0)
(0.96208 -0.0553982 0)
(0.961297 -0.0546133 0)
(0.96056 -0.0538455 0)
(0.959866 -0.0530967 0)
(0.959214 -0.0523683 0)
(0.958602 -0.0516618 0)
(1.01033 -0.000820349 0)
(1.01044 -0.00276714 0)
(1.01066 -0.00444163 0)
(1.01095 -0.00625616 0)
(1.01133 -0.00800778 0)
(1.01177 -0.00979916 0)
(1.01227 -0.0116161 0)
(1.01283 -0.0134694 0)
(1.01342 -0.0153656 0)
(1.01404 -0.0173084 0)
(1.01467 -0.0193003 0)
(1.01532 -0.0213423 0)
(1.01596 -0.0234341 0)
(1.01659 -0.0255741 0)
(1.01718 -0.0277598 0)
(1.01774 -0.0299874 0)
(1.01825 -0.0322522 0)
(1.01869 -0.0345486 0)
(1.01905 -0.0368701 0)
(1.01932 -0.0392093 0)
(1.01949 -0.0415579 0)
(1.01955 -0.0439069 0)
(1.01949 -0.0462466 0)
(1.0193 -0.0485666 0)
(1.01898 -0.0508559 0)
(1.01851 -0.0531033 0)
(1.01789 -0.0552971 0)
(1.01713 -0.0574256 0)
(1.01622 -0.059477 0)
(1.01516 -0.06144 0)
(1.01395 -0.0633034 0)
(1.01261 -0.0650572 0)
(1.01113 -0.0666918 0)
(1.00953 -0.0681989 0)
(1.00782 -0.0695714 0)
(1.00601 -0.0708038 0)
(1.00411 -0.0718918 0)
(1.00213 -0.0728328 0)
(1.00009 -0.0736258 0)
(0.998003 -0.0742713 0)
(0.995883 -0.0747713 0)
(0.993741 -0.0751294 0)
(0.991592 -0.0753505 0)
(0.989448 -0.0754405 0)
(0.987319 -0.075406 0)
(0.985217 -0.0752543 0)
(0.98315 -0.074993 0)
(0.981128 -0.0746307 0)
(0.979157 -0.0741766 0)
(0.977244 -0.0736409 0)
(0.975395 -0.073034 0)
(0.973614 -0.0723659 0)
(0.971905 -0.0716455 0)
(0.970269 -0.0708806 0)
(0.968701 -0.0700782 0)
(0.967198 -0.069245 0)
(0.965756 -0.0683878 0)
(0.964377 -0.0675135 0)
(0.963061 -0.0666284 0)
(0.961813 -0.0657382 0)
(0.960631 -0.0648477 0)
(0.959515 -0.0639611 0)
(0.958463 -0.0630823 0)
(0.957473 -0.0622144 0)
(0.956541 -0.0613604 0)
(0.955665 -0.0605228 0)
(0.954842 -0.0597038 0)
(0.954068 -0.0589054 0)
(0.953343 -0.0581293 0)
(1.0111 -0.00083351 0)
(1.01122 -0.00280456 0)
(1.01145 -0.00450421 0)
(1.01178 -0.00634774 0)
(1.01219 -0.00812905 0)
(1.01268 -0.00995563 0)
(1.01324 -0.011812 0)
(1.01385 -0.0137099 0)
(1.0145 -0.0156566 0)
(1.01519 -0.0176565 0)
(1.0159 -0.0197126 0)
(1.01663 -0.0218265 0)
(1.01735 -0.0239984 0)
(1.01807 -0.0262275 0)
(1.01875 -0.0285117 0)
(1.0194 -0.0308478 0)
(1.02 -0.0332317 0)
(1.02053 -0.0356583 0)
(1.02099 -0.0381216 0)
(1.02135 -0.0406146 0)
(1.02161 -0.0431294 0)
(1.02175 -0.0456574 0)
(1.02177 -0.048189 0)
(1.02165 -0.0507139 0)
(1.02139 -0.053221 0)
(1.02097 -0.0556985 0)
(1.02039 -0.0581344 0)
(1.01965 -0.0605159 0)
(1.01875 -0.0628304 0)
(1.01768 -0.0650649 0)
(1.01644 -0.0672068 0)
(1.01505 -0.0692439 0)
(1.0135 -0.0711648 0)
(1.01181 -0.0729588 0)
(1.00998 -0.0746164 0)
(1.00803 -0.0761294 0)
(1.00597 -0.0774913 0)
(1.00381 -0.0786969 0)
(1.00157 -0.0797431 0)
(0.999261 -0.0806284 0)
(0.996903 -0.081353 0)
(0.994509 -0.0819191 0)
(0.992094 -0.08233 0)
(0.989674 -0.0825908 0)
(0.987261 -0.0827079 0)
(0.984868 -0.0826893 0)
(0.982507 -0.0825439 0)
(0.980188 -0.0822813 0)
(0.97792 -0.081911 0)
(0.975708 -0.0814422 0)
(0.97356 -0.0808837 0)
(0.971477 -0.0802442 0)
(0.969463 -0.0795332 0)
(0.967521 -0.0787608 0)
(0.965657 -0.0779373 0)
(0.96388 -0.0770728 0)
(0.962193 -0.0761757 0)
(0.960596 -0.0752534 0)
(0.959084 -0.0743126 0)
(0.957653 -0.0733594 0)
(0.956297 -0.0723997 0)
(0.955013 -0.071439 0)
(0.953798 -0.0704825 0)
(0.952651 -0.0695346 0)
(0.951568 -0.0685991 0)
(0.950547 -0.0676794 0)
(0.949587 -0.0667783 0)
(0.948684 -0.0658984 0)
(0.947837 -0.0650419 0)
(1.01183 -0.000844041 0)
(1.01197 -0.00283318 0)
(1.01222 -0.00455268 0)
(1.01257 -0.00641921 0)
(1.01303 -0.00822422 0)
(1.01356 -0.0100796 0)
(1.01417 -0.0119687 0)
(1.01484 -0.0139042 0)
(1.01556 -0.015894 0)
(1.01632 -0.0179429 0)
(1.01711 -0.0200547 0)
(1.01791 -0.0222317 0)
(1.01872 -0.0244745 0)
(1.01953 -0.0267829 0)
(1.02031 -0.0291554 0)
(1.02105 -0.0315896 0)
(1.02175 -0.0340819 0)
(1.02238 -0.0366279 0)
(1.02293 -0.0392221 0)
(1.0234 -0.0418583 0)
(1.02376 -0.0445291 0)
(1.024 -0.0472265 0)
(1.02411 -0.0499411 0)
(1.02407 -0.0526631 0)
(1.02389 -0.0553816 0)
(1.02354 -0.0580848 0)
(1.02302 -0.0607602 0)
(1.02232 -0.0633948 0)
(1.02145 -0.065975 0)
(1.02039 -0.0684867 0)
(1.01915 -0.0709161 0)
(1.01773 -0.0732491 0)
(1.01614 -0.0754722 0)
(1.01437 -0.0775726 0)
(1.01245 -0.0795381 0)
(1.01038 -0.0813581 0)
(1.00817 -0.083023 0)
(1.00585 -0.0845252 0)
(1.00341 -0.0858587 0)
(1.00089 -0.0870193 0)
(0.998296 -0.088005 0)
(0.995648 -0.0888154 0)
(0.992962 -0.0894524 0)
(0.990256 -0.0899194 0)
(0.987546 -0.0902218 0)
(0.984846 -0.090366 0)
(0.982172 -0.0903596 0)
(0.979536 -0.090211 0)
(0.97695 -0.08993 0)
(0.974423 -0.0895278 0)
(0.971966 -0.0890165 0)
(0.969587 -0.088409 0)
(0.967294 -0.0877173 0)
(0.965093 -0.0869525 0)
(0.962981 -0.086124 0)
(0.960954 -0.0852406 0)
(0.959008 -0.0843114 0)
(0.957141 -0.083346 0)
(0.955357 -0.0823534 0)
(0.953658 -0.0813422 0)
(0.952049 -0.0803197 0)
(0.950527 -0.0792919 0)
(0.949091 -0.0782647 0)
(0.947739 -0.0772428 0)
(0.946466 -0.0762308 0)
(0.945269 -0.0752326 0)
(0.944144 -0.0742518 0)
(0.943088 -0.0732914 0)
(0.942096 -0.0723543 0)
(1.01254 -0.000852364 0)
(1.01269 -0.00285447 0)
(1.01296 -0.00458931 0)
(1.01334 -0.00647376 0)
(1.01383 -0.00829733 0)
(1.01441 -0.0101761 0)
(1.01507 -0.012092 0)
(1.0158 -0.0140587 0)