/*--------------------------------*- C++ -*----------------------------------*\
  =========                 |
  \\      /  F ield         | OpenFOAM: The Open Source CFD Toolbox
   \\    /   O peration     | Website:  https://openfoam.org
    \\  /    A nd           | Version:  10
     \\/     M anipulation  |
\*---------------------------------------------------------------------------*/
FoamFile
{
    format      ascii;
    class       volVectorField;
    location    "20";
    object      U;
}
// * * * * * * * * * * * * * * * * * * * * * * * * * * * * * * * * * * * * * //

dimensions      [0 1 -1 0 0 0 0];

internalField   nonuniform List<vector> 
66268
(
(1 -3.28828e-05 0)
(1 -0.000121236 0)
(1 -0.000194263 0)
(1 -0.00027105 0)
(1 -0.000346821 0)
(1 -0.000422135 0)
(1 -0.000497574 0)
(1 -0.000573294 0)
(1 -0.000649263 0)
(1 -0.0007254 0)
(1 -0.000801545 0)
(1 -0.00087746 0)
(1 -0.00095285 0)
(1 -0.00102737 0)
(1 -0.00110063 0)
(1 -0.00117224 0)
(1 -0.00124178 0)
(1 -0.00130882 0)
(1 -0.00137297 0)
(1 -0.00143384 0)
(1 -0.00149108 0)
(1 -0.00154437 0)
(1 -0.00159345 0)
(1 -0.0016381 0)
(1 -0.00167817 0)
(1 -0.00171353 0)
(1 -0.00174415 0)
(1 -0.00177001 0)
(1 -0.00179117 0)
(1 -0.00180772 0)
(1 -0.00181978 0)
(1 -0.00182754 0)
(1 -0.00183121 0)
(1 -0.00183101 0)
(1 -0.00182723 0)
(1 -0.00182015 0)
(1 -0.00181006 0)
(1 -0.00179727 0)
(1 -0.00178206 0)
(1 -0.00176468 0)
(1 -0.00174534 0)
(1 -0.00172421 0)
(1 -0.00170143 0)
(1 -0.00167712 0)
(1 -0.00165142 0)
(0.999999 -0.00162449 0)
(0.999996 -0.0015965 0)
(0.99999 -0.00156773 0)
(0.999982 -0.00153847 0)
(0.99997 -0.00150908 0)
(0.999956 -0.00147992 0)
(0.999942 -0.00145126 0)
(0.999929 -0.00142326 0)
(0.99992 -0.00139595 0)
(0.999916 -0.00136927 0)
(0.999916 -0.00134314 0)
(0.999921 -0.00131747 0)
(0.999927 -0.00129226 0)
(0.999935 -0.00126751 0)
(0.999944 -0.00124328 0)
(0.999952 -0.00121963 0)
(0.999959 -0.00119664 0)
(0.999965 -0.00117436 0)
(0.999971 -0.00115284 0)
(0.999975 -0.0011321 0)
(0.999979 -0.00111216 0)
(0.999981 -0.00109303 0)
(0.999984 -0.00107474 0)
(0.999985 -0.0010573 0)
(1.00014 -0.000101897 0)
(1.00014 -0.000370588 0)
(1.00014 -0.000591947 0)
(1.00015 -0.000826347 0)
(1.00015 -0.00105636 0)
(1.00016 -0.00128391 0)
(1.00017 -0.00151129 0)
(1.00017 -0.00173864 0)
(1.00018 -0.00196584 0)
(1.00019 -0.00219267 0)
(1.00019 -0.00241862 0)
(1.0002 -0.002643 0)
(1.00021 -0.00286497 0)
(1.00021 -0.00308352 0)
(1.00022 -0.00329757 0)
(1.00022 -0.00350597 0)
(1.00022 -0.00370756 0)
(1.00022 -0.00390117 0)
(1.00022 -0.00408566 0)
(1.00021 -0.00425999 0)
(1.00021 -0.00442318 0)
(1.0002 -0.00457439 0)
(1.00019 -0.00471291 0)
(1.00018 -0.00483817 0)
(1.00017 -0.00494975 0)
(1.00015 -0.0050474 0)
(1.00014 -0.005131 0)
(1.00012 -0.00520062 0)
(1.0001 -0.00525644 0)
(1.00008 -0.00529879 0)
(1.00006 -0.0053281 0)
(1.00004 -0.00534494 0)
(1.00001 -0.00534995 0)
(0.999989 -0.00534382 0)
(0.999966 -0.00532725 0)
(0.999941 -0.00530096 0)
(0.999917 -0.00526563 0)
(0.999893 -0.00522198 0)
(0.999869 -0.00517074 0)
(0.999845 -0.00511265 0)
(0.999821 -0.00504856 0)
(0.999797 -0.00497933 0)
(0.999774 -0.00490587 0)
(0.999751 -0.00482907 0)
(0.999728 -0.00474979 0)
(0.999707 -0.00466874 0)
(0.999688 -0.00458654 0)
(0.999672 -0.0045036 0)
(0.999662 -0.00442018 0)
(0.999657 -0.00433642 0)
(0.999657 -0.00425236 0)
(0.999658 -0.00416812 0)
(0.999659 -0.00408394 0)
(0.999656 -0.00400021 0)
(0.999647 -0.0039174 0)
(0.999633 -0.00383595 0)
(0.999614 -0.00375626 0)
(0.999593 -0.00367856 0)
(0.99957 -0.00360302 0)
(0.999548 -0.00352968 0)
(0.999527 -0.00345855 0)
(0.999507 -0.00338963 0)
(0.99949 -0.00332289 0)
(0.999475 -0.00325831 0)
(0.999462 -0.0031959 0)
(0.99945 -0.00313564 0)
(0.99944 -0.00307752 0)
(0.999431 -0.00302155 0)
(0.999422 -0.00296782 0)
(1.00044 -0.00017359 0)
(1.00044 -0.00062117 0)
(1.00045 -0.000988808 0)
(1.00046 -0.00138207 0)
(1.00048 -0.00176515 0)
(1.00049 -0.00214334 0)
(1.00051 -0.00252065 0)
(1.00053 -0.00289684 0)
(1.00055 -0.00327177 0)
(1.00057 -0.0036451 0)
(1.00059 -0.00401599 0)
(1.0006 -0.00438334 0)
(1.00062 -0.00474578 0)
(1.00063 -0.00510174 0)
(1.00064 -0.0054495 0)
(1.00065 -0.00578726 0)
(1.00065 -0.00611317 0)
(1.00064 -0.00642541 0)
(1.00063 -0.00672221 0)
(1.00062 -0.00700191 0)
(1.0006 -0.00726302 0)
(1.00057 -0.00750421 0)
(1.00054 -0.00772439 0)
(1.00051 -0.00792268 0)
(1.00047 -0.00809847 0)
(1.00042 -0.00825138 0)
(1.00037 -0.00838129 0)
(1.00032 -0.00848831 0)
(1.00026 -0.00857278 0)
(1.0002 -0.00863526 0)
(1.00013 -0.00867646 0)
(1.00007 -0.00869726 0)
(0.999999 -0.00869869 0)
(0.999931 -0.00868187 0)
(0.999862 -0.00864804 0)
(0.999793 -0.00859849 0)
(0.999724 -0.00853462 0)
(0.999656 -0.00845786 0)
(0.999589 -0.00836966 0)
(0.999522 -0.00827144 0)
(0.999457 -0.00816448 0)
(0.999394 -0.00804993 0)
(0.999333 -0.0079288 0)
(0.999273 -0.00780195 0)
(0.999215 -0.00767014 0)
(0.999159 -0.00753411 0)
(0.999103 -0.0073946 0)
(0.999046 -0.0072524 0)
(0.998988 -0.00710838 0)
(0.998927 -0.00696347 0)
(0.998865 -0.00681861 0)
(0.998804 -0.00667463 0)
(0.998747 -0.00653216 0)
(0.998699 -0.00639163 0)
(0.998659 -0.00625326 0)
(0.998628 -0.00611722 0)
(0.998606 -0.00598366 0)
(0.998588 -0.0058528 0)
(0.998574 -0.00572486 0)
(0.998562 -0.00560011 0)
(0.99855 -0.00547877 0)
(0.998539 -0.00536106 0)
(0.998526 -0.00524713 0)
(0.998514 -0.00513709 0)
(0.998501 -0.00503102 0)
(0.998489 -0.00492895 0)
(0.998476 -0.00483088 0)
(0.998464 -0.00473682 0)
(0.998452 -0.00464678 0)
(1.00087 -0.000245612 0)
(1.00087 -0.000868128 0)
(1.00089 -0.00138001 0)
(1.00091 -0.00193087 0)
(1.00093 -0.00246387 0)
(1.00096 -0.0029902 0)
(1.001 -0.00351464 0)
(1.00103 -0.00403645 0)
(1.00107 -0.00455569 0)
(1.0011 -0.00507185 0)
(1.00113 -0.0055838 0)
(1.00116 -0.00609005 0)
(1.00119 -0.00658878 0)
(1.00121 -0.00707788 0)
(1.00122 -0.00755506 0)
(1.00123 -0.0080179 0)
(1.00123 -0.00846392 0)
(1.00121 -0.00889068 0)
(1.00119 -0.00929581 0)
(1.00116 -0.00967709 0)
(1.00112 -0.0100325 0)
(1.00107 -0.0103603 0)
(1.00101 -0.0106589 0)
(1.00094 -0.0109271 0)
(1.00086 -0.0111642 0)
(1.00077 -0.0113696 0)
(1.00067 -0.0115431 0)
(1.00057 -0.0116848 0)
(1.00045 -0.0117951 0)
(1.00034 -0.0118749 0)
(1.00022 -0.011925 0)
(1.00009 -0.0119467 0)
(0.999962 -0.0119413 0)
(0.999832 -0.0119106 0)
(0.999702 -0.011856 0)
(0.999571 -0.0117795 0)
(0.999442 -0.0116828 0)
(0.999313 -0.0115676 0)
(0.999186 -0.0114356 0)
(0.999062 -0.0112885 0)
(0.998941 -0.0111279 0)
(0.998823 -0.0109556 0)
(0.998709 -0.0107732 0)
(0.998598 -0.0105825 0)
(0.998491 -0.0103853 0)
(0.998389 -0.0101832 0)
(0.998293 -0.00997782 0)
(0.998204 -0.00977037 0)
(0.998124 -0.00956197 0)
(0.998053 -0.00935344 0)
(0.997992 -0.00914541 0)
(0.997937 -0.00893843 0)
(0.997884 -0.00873309 0)
(0.997829 -0.00853008 0)
(0.99777 -0.00833015 0)
(0.997706 -0.00813402 0)
(0.997639 -0.00794228 0)
(0.997571 -0.00775536 0)
(0.997505 -0.00757355 0)
(0.997442 -0.00739699 0)
(0.997383 -0.00722578 0)
(0.997329 -0.00705998 0)
(0.997279 -0.0068996 0)
(0.997234 -0.00674468 0)
(0.997192 -0.00659522 0)
(0.997155 -0.00645121 0)
(0.99712 -0.00631264 0)
(0.997088 -0.00617952 0)
(0.997059 -0.00605186 0)
(1.00137 -0.000314972 0)
(1.00138 -0.00110496 0)
(1.00141 -0.0017575 0)
(1.00144 -0.00246061 0)
(1.00148 -0.00313773 0)
(1.00153 -0.00380753 0)
(1.00158 -0.00447433 0)
(1.00163 -0.00513722 0)
(1.00168 -0.00579651 0)
(1.00173 -0.00645151 0)
(1.00178 -0.00710087 0)
(1.00183 -0.00774276 0)
(1.00187 -0.00837493 0)
(1.0019 -0.0089948 0)
(1.00192 -0.00959954 0)
(1.00193 -0.0101861 0)
(1.00192 -0.0107515 0)
(1.0019 -0.0112926 0)
(1.00187 -0.0118065 0)
(1.00182 -0.0122903 0)
(1.00176 -0.0127415 0)
(1.00167 -0.0131577 0)
(1.00158 -0.0135372 0)
(1.00146 -0.0138782 0)
(1.00134 -0.0141796 0)
(1.00119 -0.0144407 0)
(1.00104 -0.0146611 0)
(1.00087 -0.0148409 0)
(1.0007 -0.0149806 0)
(1.00051 -0.0150811 0)
(1.00032 -0.0151435 0)
(1.00012 -0.0151694 0)
(0.999913 -0.0151605 0)
(0.999706 -0.0151187 0)
(0.999498 -0.0150461 0)
(0.99929 -0.0149451 0)
(0.999082 -0.0148178 0)
(0.998876 -0.0146667 0)
(0.998673 -0.0144942 0)
(0.998474 -0.014303 0)
(0.99828 -0.0140953 0)
(0.99809 -0.0138737 0)
(0.997906 -0.0136401 0)
(0.997727 -0.0133966 0)
(0.997555 -0.0131448 0)
(0.997388 -0.0128863 0)
(0.997226 -0.0126224 0)
(0.997068 -0.0123546 0)
(0.996911 -0.0120841 0)
(0.996755 -0.0118123 0)
(0.996601 -0.0115406 0)
(0.996451 -0.0112702 0)
(0.99631 -0.0110023 0)
(0.996182 -0.0107378 0)
(0.996069 -0.0104772 0)
(0.995972 -0.0102209 0)
(0.995887 -0.00996958 0)
(0.995812 -0.00972349 0)
(0.995744 -0.00948313 0)
(0.995681 -0.00924893 0)
(0.995621 -0.00902128 0)
(0.995563 -0.00880048 0)
(0.995508 -0.00858678 0)
(0.995454 -0.00838035 0)
(0.995403 -0.00818128 0)
(0.995354 -0.00798963 0)
(0.995307 -0.00780539 0)
(0.995263 -0.00762856 0)
(0.995221 -0.00745912 0)
(1.00195 -0.000379948 0)
(1.00196 -0.00132622 0)
(1.002 -0.00211219 0)
(1.00205 -0.0029585 0)
(1.0021 -0.00377134 0)
(1.00217 -0.00457739 0)
(1.00224 -0.00537973 0)
(1.00231 -0.00617762 0)
(1.00238 -0.00697163 0)
(1.00246 -0.00776097 0)
(1.00253 -0.00854414 0)
(1.00259 -0.00931901 0)
(1.00264 -0.010083 0)
(1.00268 -0.010833 0)
(1.00271 -0.0115658 0)
(1.00272 -0.0122778 0)
(1.00272 -0.0129652 0)
(1.00269 -0.0136246 0)
(1.00265 -0.0142521 0)
(1.00258 -0.0148445 0)
(1.00249 -0.0153986 0)
(1.00237 -0.0159114 0)
(1.00223 -0.0163805 0)
(1.00207 -0.0168038 0)
(1.00189 -0.0171798 0)
(1.00169 -0.0175073 0)
(1.00147 -0.0177858 0)
(1.00123 -0.0180151 0)
(1.00098 -0.0181957 0)
(1.00071 -0.0183284 0)
(1.00044 -0.0184144 0)
(1.00015 -0.0184553 0)
(0.999856 -0.018453 0)
(0.999558 -0.0184099 0)
(0.999256 -0.0183282 0)
(0.998954 -0.0182106 0)
(0.998652 -0.0180599 0)
(0.998353 -0.0178789 0)
(0.998057 -0.0176702 0)
(0.997766 -0.0174368 0)
(0.997482 -0.0171812 0)
(0.997204 -0.016906 0)
(0.996934 -0.0166139 0)
(0.996672 -0.0163076 0)
(0.99642 -0.0159897 0)
(0.996177 -0.0156627 0)
(0.995945 -0.0153294 0)
(0.995726 -0.0149918 0)
(0.995522 -0.0146523 0)
(0.995333 -0.0143123 0)
(0.99516 -0.0139734 0)
(0.994999 -0.0136365 0)
(0.994847 -0.0133027 0)
(0.994697 -0.0129728 0)
(0.994546 -0.0126478 0)
(0.994395 -0.0123285 0)
(0.994245 -0.0120157 0)
(0.994099 -0.0117101 0)
(0.993959 -0.0114122 0)
(0.993827 -0.0111222 0)
(0.993704 -0.0108406 0)
(0.99359 -0.0105674 0)
(0.993486 -0.0103029 0)
(0.993389 -0.0100472 0)
(0.9933 -0.00980032 0)
(0.993217 -0.00956238 0)
(0.993141 -0.00933338 0)
(0.99307 -0.00911333 0)
(0.993004 -0.00890226 0)
(1.0026 -0.000439789 0)
(1.00261 -0.00152819 0)
(1.00266 -0.00243662 0)
(1.00272 -0.00341451 0)
(1.00279 -0.00435257 0)
(1.00288 -0.00528564 0)
(1.00297 -0.00621509 0)
(1.00307 -0.00714068 0)
(1.00317 -0.00806328 0)
(1.00326 -0.00898211 0)
(1.00336 -0.00989556 0)
(1.00344 -0.0108013 0)
(1.00351 -0.0116964 0)
(1.00357 -0.0125775 0)
(1.00361 -0.0134409 0)
(1.00363 -0.0142823 0)
(1.00362 -0.0150976 0)
(1.00359 -0.0158825 0)
(1.00353 -0.0166328 0)
(1.00344 -0.0173442 0)
(1.00333 -0.0180131 0)
(1.00318 -0.0186357 0)
(1.003 -0.0192091 0)
(1.00279 -0.0197305 0)
(1.00255 -0.0201976 0)
(1.00228 -0.020609 0)
(1.00199 -0.0209636 0)
(1.00167 -0.0212608 0)
(1.00134 -0.0215008 0)
(1.00098 -0.0216841 0)
(1.0006 -0.0218119 0)
(1.00022 -0.0218857 0)
(0.999821 -0.0219078 0)
(0.999416 -0.0218803 0)
(0.999006 -0.0218062 0)
(0.998594 -0.0216883 0)
(0.998181 -0.0215298 0)
(0.997771 -0.0213341 0)
(0.997366 -0.0211046 0)
(0.996966 -0.0208447 0)
(0.996574 -0.020558 0)
(0.996191 -0.020248 0)
(0.995819 -0.019918 0)
(0.995458 -0.019571 0)
(0.995109 -0.0192097 0)
(0.994772 -0.0188366 0)
(0.994448 -0.0184539 0)
(0.994135 -0.0180636 0)
(0.993831 -0.0176676 0)
(0.993535 -0.0172677 0)
(0.993248 -0.016866 0)
(0.99297 -0.0164643 0)
(0.992707 -0.0160644 0)
(0.992463 -0.0156681 0)
(0.99224 -0.0152766 0)
(0.992039 -0.0148912 0)
(0.991857 -0.0145126 0)
(0.991691 -0.0141418 0)
(0.991537 -0.0137795 0)
(0.991393 -0.0134262 0)
(0.991256 -0.0130826 0)
(0.991126 -0.0127491 0)
(0.991002 -0.0124261 0)
(0.990885 -0.0121137 0)
(0.990773 -0.0118123 0)
(0.990668 -0.0115217 0)
(0.990569 -0.0112421 0)
(0.990475 -0.0109736 0)
(0.990387 -0.010716 0)
(1.00329 -0.000493924 0)
(1.00332 -0.0017083 0)
(1.00338 -0.00272568 0)
(1.00345 -0.00382176 0)
(1.00354 -0.00487312 0)
(1.00365 -0.00592242 0)
(1.00377 -0.00696926 0)
(1.0039 -0.0080142 0)
(1.00402 -0.00905845 0)
(1.00415 -0.0101013 0)
(1.00427 -0.0111412 0)
(1.00438 -0.0121756 0)
(1.00448 -0.0132015 0)
(1.00456 -0.0142151 0)
(1.00461 -0.0152123 0)
(1.00464 -0.0161885 0)
(1.00464 -0.017139 0)
(1.00461 -0.0180587 0)
(1.00455 -0.0189428 0)
(1.00444 -0.0197864 0)
(1.0043 -0.0205849 0)
(1.00412 -0.021334 0)
(1.0039 -0.0220298 0)
(1.00364 -0.0226687 0)
(1.00334 -0.0232479 0)
(1.00301 -0.0237649 0)
(1.00264 -0.0242181 0)
(1.00223 -0.0246064 0)
(1.0018 -0.0249293 0)
(1.00135 -0.025187 0)
(1.00087 -0.0253803 0)
(1.00037 -0.0255107 0)
(0.999857 -0.0255801 0)
(0.999333 -0.0255907 0)
(0.998801 -0.0255454 0)
(0.998265 -0.0254473 0)
(0.997728 -0.0252996 0)
(0.997193 -0.0251058 0)
(0.996663 -0.0248697 0)
(0.99614 -0.0245948 0)
(0.995627 -0.0242848 0)
(0.995126 -0.0239433 0)
(0.994637 -0.0235737 0)
(0.994164 -0.0231798 0)
(0.993705 -0.0227652 0)
(0.993264 -0.0223337 0)
(0.992841 -0.021889 0)
(0.992436 -0.0214346 0)
(0.992053 -0.020974 0)
(0.991693 -0.0205101 0)
(0.991356 -0.0200455 0)
(0.991039 -0.0195819 0)
(0.990739 -0.0191211 0)
(0.99045 -0.0186642 0)
(0.990167 -0.0182126 0)
(0.989892 -0.0177672 0)
(0.989623 -0.0173294 0)
(0.989365 -0.0168999 0)
(0.98912 -0.0164799 0)
(0.988889 -0.0160698 0)
(0.988673 -0.0156704 0)
(0.988473 -0.0152821 0)
(0.988287 -0.0149053 0)
(0.988114 -0.0145403 0)
(0.987954 -0.0141874 0)
(0.987805 -0.0138468 0)
(0.987666 -0.0135186 0)
(0.987537 -0.0132028 0)
(0.987417 -0.0128995 0)
(1.00403 -0.0005417 0)
(1.00406 -0.00186491 0)
(1.00413 -0.00297689 0)
(1.00422 -0.00417689 0)
(1.00434 -0.00532871 0)
(1.00448 -0.00648244 0)
(1.00463 -0.00763602 0)
(1.00478 -0.00879103 0)
(1.00495 -0.00994902 0)
(1.00511 -0.0111095 0)
(1.00526 -0.012271 0)
(1.00541 -0.0134311 0)
(1.00553 -0.0145866 0)
(1.00564 -0.0157335 0)
(1.00572 -0.0168673 0)
(1.00577 -0.0179831 0)
(1.00578 -0.0190755 0)
(1.00576 -0.020139 0)
(1.00569 -0.021168 0)
(1.00557 -0.0221569 0)
(1.00541 -0.0231002 0)
(1.0052 -0.0239928 0)
(1.00494 -0.0248298 0)
(1.00464 -0.0256067 0)
(1.00428 -0.0263198 0)
(1.00388 -0.0269658 0)
(1.00343 -0.0275419 0)
(1.00294 -0.0280464 0)
(1.00241 -0.0284779 0)
(1.00185 -0.0288361 0)
(1.00126 -0.029121 0)
(1.00065 -0.0293336 0)
(1.00001 -0.0294755 0)
(0.999356 -0.0295487 0)
(0.998691 -0.0295558 0)
(0.998019 -0.0295 0)
(0.997343 -0.0293848 0)
(0.996668 -0.0292141 0)
(0.995996 -0.028992 0)
(0.995333 -0.0287229 0)
(0.994679 -0.0284114 0)
(0.994038 -0.028062 0)
(0.993413 -0.0276795 0)
(0.992804 -0.0272681 0)
(0.992213 -0.0268321 0)
(0.991643 -0.0263751 0)
(0.991093 -0.0259004 0)
(0.990564 -0.0254109 0)
(0.990054 -0.0249093 0)
(0.989563 -0.0243982 0)
(0.989089 -0.0238802 0)
(0.988634 -0.0233579 0)
(0.9882 -0.0228341 0)
(0.987792 -0.0223115 0)
(0.987412 -0.0217926 0)
(0.987062 -0.0212793 0)
(0.986738 -0.0207734 0)
(0.986439 -0.0202761 0)
(0.986158 -0.0197888 0)
(0.985895 -0.0193124 0)
(0.985646 -0.0188477 0)
(0.985411 -0.0183955 0)
(0.985188 -0.0179565 0)
(0.984978 -0.0175309 0)
(0.984779 -0.0171193 0)
(0.984593 -0.0167218 0)
(0.984417 -0.0163386 0)
(0.984253 -0.0159699 0)
(0.984098 -0.0156156 0)
(1.00479 -0.000582615 0)
(1.00483 -0.00199768 0)
(1.00492 -0.0031907 0)
(1.00503 -0.00448042 0)
(1.00517 -0.00571975 0)
(1.00534 -0.00696583 0)
(1.00552 -0.0082151 0)
(1.00572 -0.00947029 0)
(1.00592 -0.0107333 0)
(1.00612 -0.0120041 0)
(1.00632 -0.0132814 0)
(1.0065 -0.0145628 0)
(1.00666 -0.0158452 0)
(1.0068 -0.0171244 0)
(1.00691 -0.0183957 0)
(1.00699 -0.0196538 0)
(1.00702 -0.020893 0)
(1.00701 -0.0221071 0)
(1.00695 -0.0232899 0)
(1.00683 -0.0244351 0)
(1.00666 -0.0255362 0)
(1.00643 -0.0265873 0)
(1.00614 -0.0275824 0)
(1.00579 -0.0285162 0)
(1.00538 -0.0293836 0)
(1.00491 -0.0301803 0)
(1.00439 -0.0309026 0)
(1.00381 -0.0315475 0)
(1.00319 -0.0321128 0)
(1.00253 -0.0325971 0)
(1.00182 -0.0329997 0)
(1.00108 -0.0333208 0)
(1.00031 -0.0335614 0)
(0.999522 -0.0337232 0)
(0.998714 -0.0338086 0)
(0.997893 -0.0338204 0)
(0.997066 -0.0337622 0)
(0.996237 -0.0336378 0)
(0.99541 -0.0334515 0)
(0.994591 -0.0332076 0)
(0.993782 -0.0329106 0)
(0.992988 -0.032565 0)
(0.992212 -0.0321753 0)
(0.991456 -0.031746 0)
(0.990722 -0.0312819 0)
(0.990013 -0.0307877 0)
(0.98933 -0.0302683 0)
(0.988674 -0.0297286 0)
(0.988048 -0.0291735 0)
(0.987452 -0.0286075 0)
(0.986888 -0.0280345 0)
(0.986354 -0.0274578 0)
(0.985848 -0.02688 0)
(0.985365 -0.0263032 0)
(0.984901 -0.0257293 0)
(0.984453 -0.02516 0)
(0.984022 -0.0245972 0)
(0.98361 -0.0240424 0)
(0.983219 -0.0234971 0)
(0.982851 -0.0229627 0)
(0.982506 -0.0224402 0)
(0.982184 -0.0219306 0)
(0.981883 -0.0214347 0)
(0.981602 -0.020953 0)
(0.98134 -0.0204862 0)
(0.981096 -0.0200345 0)
(0.980868 -0.0195984 0)
(0.980655 -0.019178 0)
(0.980457 -0.0187736 0)
(1.00556 -0.000616793 0)
(1.00561 -0.00210812 0)
(1.00572 -0.0033701 0)
(1.00585 -0.00473628 0)
(1.00602 -0.00605082 0)
(1.00622 -0.00737763 0)
(1.00644 -0.00871179 0)
(1.00668 -0.0100571 0)
(1.00692 -0.0114161 0)
(1.00717 -0.0127891 0)
(1.00741 -0.0141752 0)
(1.00764 -0.0155722 0)
(1.00785 -0.016977 0)
(1.00803 -0.0183855 0)
(1.00818 -0.0197929 0)
(1.00829 -0.0211936 0)
(1.00835 -0.0225815 0)
(1.00836 -0.02395 0)
(1.00831 -0.0252923 0)
(1.0082 -0.0266012 0)
(1.00803 -0.0278697 0)
(1.00779 -0.0290907 0)
(1.00748 -0.0302574 0)
(1.00709 -0.0313633 0)
(1.00664 -0.0324022 0)
(1.00612 -0.0333686 0)
(1.00553 -0.0342576 0)
(1.00487 -0.0350649 0)
(1.00416 -0.0357871 0)
(1.00339 -0.0364218 0)
(1.00257 -0.0369672 0)
(1.0017 -0.0374225 0)
(1.0008 -0.0377879 0)
(0.999867 -0.0380643 0)
(0.998909 -0.0382534 0)
(0.997932 -0.0383576 0)
(0.996942 -0.0383802 0)
(0.995947 -0.0383247 0)
(0.994952 -0.0381956 0)
(0.993962 -0.0379975 0)
(0.992981 -0.0377355 0)
(0.992015 -0.0374151 0)
(0.991067 -0.0370421 0)
(0.990141 -0.0366222 0)
(0.989239 -0.0361611 0)
(0.988364 -0.0356641 0)
(0.987518 -0.035136 0)
(0.986702 -0.0345811 0)
(0.985917 -0.0340032 0)
(0.985162 -0.0334059 0)
(0.984436 -0.032793 0)
(0.98374 -0.032168 0)
(0.983074 -0.0315347 0)
(0.982442 -0.0308972 0)
(0.981847 -0.030259 0)
(0.981291 -0.0296234 0)
(0.980772 -0.028993 0)
(0.980287 -0.02837 0)
(0.979832 -0.0277563 0)
(0.979403 -0.0271535 0)
(0.978999 -0.0265632 0)
(0.978618 -0.0259865 0)
(0.978258 -0.0254245 0)
(0.977919 -0.024878 0)
(0.9776 -0.0243478 0)
(0.9773 -0.0238344 0)
(0.977018 -0.0233381 0)
(0.976754 -0.0228594 0)
(0.976507 -0.0223986 0)
(1.00633 -0.000645179 0)
(1.00639 -0.00219942 0)
(1.00651 -0.00351977 0)
(1.00667 -0.00495068 0)
(1.00687 -0.00632951 0)
(1.00711 -0.00772648 0)
(1.00737 -0.00913544 0)
(1.00765 -0.0105613 0)
(1.00794 -0.0120071 0)
(1.00824 -0.0134739 0)
(1.00853 -0.0149611 0)
(1.00881 -0.0164668 0)
(1.00907 -0.0179882 0)
(1.0093 -0.0195212 0)
(1.0095 -0.021061 0)
(1.00965 -0.0226019 0)
(1.00975 -0.0241375 0)
(1.0098 -0.0256609 0)
(1.00978 -0.0271648 0)
(1.00969 -0.0286414 0)
(1.00953 -0.030083 0)
(1.00929 -0.0314816 0)
(1.00896 -0.0328295 0)
(1.00856 -0.034119 0)
(1.00807 -0.035343 0)
(1.0075 -0.0364945 0)
(1.00686 -0.0375674 0)
(1.00613 -0.0385562 0)
(1.00533 -0.0394561 0)
(1.00446 -0.0402632 0)
(1.00353 -0.0409745 0)
(1.00254 -0.0415881 0)
(1.0015 -0.0421029 0)
(1.00042 -0.0425188 0)
(0.99931 -0.0428367 0)
(0.998169 -0.0430584 0)
(0.997009 -0.0431866 0)
(0.995837 -0.0432248 0)
(0.99466 -0.043177 0)
(0.993485 -0.0430479 0)
(0.992318 -0.0428426 0)
(0.991164 -0.0425662 0)
(0.990029 -0.0422242 0)
(0.988918 -0.041822 0)
(0.987835 -0.0413652 0)
(0.986783 -0.0408594 0)
(0.985764 -0.0403107 0)
(0.984782 -0.0397254 0)
(0.983838 -0.0391098 0)
(0.982934 -0.0384701 0)
(0.982072 -0.037812 0)
(0.981252 -0.0371406 0)
(0.980472 -0.03646 0)
(0.979729 -0.0357737 0)
(0.97902 -0.0350847 0)
(0.978341 -0.0343957 0)
(0.97769 -0.0337095 0)
(0.97707 -0.0330287 0)
(0.976482 -0.0323557 0)
(0.975927 -0.0316927 0)
(0.975404 -0.0310414 0)
(0.974915 -0.0304036 0)
(0.974456 -0.0297804 0)
(0.974026 -0.0291732 0)
(0.973625 -0.0285827 0)
(0.973249 -0.0280099 0)
(0.972897 -0.0274552 0)
(0.972568 -0.0269192 0)
(0.972261 -0.0264025 0)
(1.00708 -0.000669138 0)
(1.00715 -0.00227556 0)
(1.00729 -0.00364519 0)
(1.00747 -0.00513104 0)
(1.00771 -0.00656496 0)
(1.00798 -0.00802295 0)
(1.00829 -0.00949773 0)
(1.00862 -0.0109953 0)
(1.00896 -0.0125194 0)
(1.00931 -0.0140717 0)
(1.00966 -0.015652 0)
(1.01 -0.017259 0)
(1.01032 -0.01889 0)
(1.01061 -0.0205412 0)
(1.01087 -0.022208 0)
(1.01107 -0.0238845 0)
(1.01123 -0.0255644 0)
(1.01132 -0.0272405 0)
(1.01134 -0.0289051 0)
(1.01128 -0.0305501 0)
(1.01114 -0.032167 0)
(1.01091 -0.0337472 0)
(1.01059 -0.0352822 0)
(1.01018 -0.0367632 0)
(1.00967 -0.038182 0)
(1.00907 -0.0395305 0)
(1.00837 -0.0408013 0)
(1.00759 -0.0419873 0)
(1.00671 -0.0430825 0)
(1.00575 -0.0440815 0)
(1.00471 -0.0449797 0)
(1.00361 -0.0457738 0)
(1.00244 -0.0464614 0)
(1.00121 -0.0470412 0)
(0.999942 -0.0475129 0)
(0.998633 -0.0478773 0)
(0.997296 -0.0481362 0)
(0.99594 -0.0482924 0)
(0.994571 -0.0483493 0)
(0.993199 -0.0483113 0)
(0.991831 -0.0481833 0)
(0.990475 -0.0479709 0)
(0.989136 -0.0476804 0)
(0.987819 -0.0473186 0)
(0.986531 -0.0468924 0)
(0.985275 -0.0464087 0)
(0.984055 -0.0458742 0)
(0.982874 -0.0452949 0)
(0.981734 -0.0446764 0)
(0.980636 -0.0440237 0)
(0.97958 -0.0433417 0)
(0.978565 -0.0426355 0)
(0.977593 -0.04191 0)
(0.976666 -0.0411707 0)
(0.975787 -0.0404226 0)
(0.974958 -0.0396705 0)
(0.974179 -0.0389184 0)
(0.973447 -0.0381696 0)
(0.972759 -0.0374271 0)
(0.97211 -0.0366935 0)
(0.971499 -0.0359711 0)
(0.970922 -0.0352619 0)
(0.970378 -0.0345676 0)
(0.969865 -0.0338898 0)
(0.969383 -0.0332298 0)
(0.96893 -0.0325885 0)
(0.968505 -0.0319668 0)
(0.968106 -0.0313655 0)
(0.967733 -0.0307851 0)
(1.00782 -0.000689887 0)
(1.0079 -0.00234026 0)
(1.00806 -0.00375179 0)
(1.00827 -0.00528478 0)
(1.00854 -0.00676632 0)
(1.00885 -0.00827769 0)
(1.0092 -0.00981061 0)
(1.00959 -0.011372 0)
(1.00999 -0.0129667 0)
(1.0104 -0.0145966 0)
(1.01081 -0.0162623 0)
(1.01121 -0.0179628 0)
(1.0116 -0.019696 0)
(1.01195 -0.0214584 0)
(1.01227 -0.0232455 0)
(1.01254 -0.0250517 0)
(1.01276 -0.0268705 0)
(1.0129 -0.0286949 0)
(1.01297 -0.0305168 0)
(1.01296 -0.032328 0)
(1.01285 -0.0341195 0)
(1.01265 -0.0358821 0)
(1.01235 -0.0376066 0)
(1.01194 -0.0392835 0)
(1.01143 -0.0409034 0)
(1.01081 -0.0424573 0)
(1.01008 -0.0439364 0)
(1.00924 -0.0453325 0)
(1.0083 -0.0466377 0)
(1.00726 -0.0478453 0)
(1.00613 -0.0489492 0)
(1.00491 -0.0499444 0)
(1.00361 -0.050827 0)
(1.00225 -0.051594 0)
(1.00082 -0.0522438 0)
(0.999346 -0.0527758 0)
(0.997829 -0.0531906 0)
(0.996281 -0.0534901 0)
(0.994713 -0.053677 0)
(0.993134 -0.0537553 0)
(0.991553 -0.0537297 0)
(0.989978 -0.0536057 0)
(0.988418 -0.053389 0)
(0.98688 -0.0530859 0)
(0.985371 -0.0527027 0)
(0.983896 -0.052246 0)
(0.982461 -0.0517225 0)
(0.98107 -0.0511398 0)
(0.979726 -0.0505056 0)
(0.978432 -0.0498277 0)
(0.97719 -0.049114 0)
(0.976002 -0.0483715 0)
(0.97487 -0.0476065 0)
(0.973791 -0.0468244 0)
(0.972761 -0.0460298 0)
(0.971778 -0.0452268 0)
(0.970839 -0.0444196 0)
(0.969945 -0.043612 0)
(0.969095 -0.0428079 0)
(0.968291 -0.0420105 0)
(0.967533 -0.0412229 0)
(0.96682 -0.0404474 0)
(0.96615 -0.0396863 0)
(0.965522 -0.0389415 0)
(0.964933 -0.0382146 0)
(0.964381 -0.0375069 0)
(0.963865 -0.0368196 0)
(0.963381 -0.0361536 0)
(0.962928 -0.0355097 0)
(1.00854 -0.000708248 0)
(1.00863 -0.00239636 0)
(1.00881 -0.00384416 0)
(1.00905 -0.00541822 0)
(1.00935 -0.0069414 0)
(1.00971 -0.00849988 0)
(1.01011 -0.0100844 0)
(1.01054 -0.011703 0)
(1.011 -0.0133611 0)
(1.01148 -0.0150614 0)
(1.01196 -0.016805 0)
(1.01243 -0.0185916 0)
(1.01288 -0.0204194 0)
(1.01331 -0.0222854 0)
(1.0137 -0.0241854 0)
(1.01404 -0.0261141 0)
(1.01432 -0.0280653 0)
(1.01454 -0.0300318 0)
(1.01467 -0.0320059 0)
(1.01471 -0.0339788 0)
(1.01465 -0.0359416 0)
(1.01449 -0.0378848 0)
(1.01422 -0.0397984 0)
(1.01384 -0.0416724 0)
(1.01333 -0.0434967 0)
(1.0127 -0.0452612 0)
(1.01195 -0.046956 0)
(1.01108 -0.0485716 0)
(1.01009 -0.0500989 0)
(1.00899 -0.0515294 0)
(1.00777 -0.0528556 0)
(1.00645 -0.0540706 0)
(1.00504 -0.0551688 0)
(1.00354 -0.0561454 0)
(1.00197 -0.0569971 0)
(1.00032 -0.0577219 0)
(0.998628 -0.0583188 0)
(0.996888 -0.0587884 0)
(0.995115 -0.0591323 0)
(0.993321 -0.0593535 0)
(0.991516 -0.0594556 0)
(0.989712 -0.0594437 0)
(0.987917 -0.0593234 0)
(0.986141 -0.0591013 0)
(0.984391 -0.0587851 0)
(0.982675 -0.0583827 0)
(0.980999 -0.0579023 0)
(0.979368 -0.057352 0)
(0.977786 -0.0567393 0)
(0.976256 -0.0560711 0)
(0.974781 -0.0553541 0)
(0.973361 -0.0545947 0)
(0.971998 -0.0537996 0)
(0.970692 -0.0529757 0)
(0.969447 -0.0521301 0)
(0.968266 -0.0512694 0)
(0.967151 -0.0503993 0)
(0.966099 -0.049525 0)
(0.965107 -0.0486508 0)
(0.964172 -0.0477807 0)
(0.96329 -0.046918 0)
(0.962458 -0.0460661 0)
(0.961673 -0.0452277 0)
(0.960933 -0.0444052 0)
(0.960237 -0.0436009 0)
(0.959583 -0.0428164 0)
(0.958969 -0.0420533 0)
(0.958394 -0.0413129 0)
(0.957854 -0.0405962 0)
(1.00924 -0.000724713 0)
(1.00935 -0.00244579 0)
(1.00954 -0.00392572 0)
(1.00981 -0.00553612 0)
(1.01015 -0.00709607 0)
(1.01055 -0.00869645 0)
(1.011 -0.0103271 0)
(1.01149 -0.0119969 0)
(1.01201 -0.013712 0)
(1.01255 -0.015476 0)
(1.01309 -0.0172905 0)
(1.01364 -0.0191557 0)
(1.01417 -0.0210706 0)
(1.01468 -0.0230324 0)
(1.01514 -0.0250375 0)
(1.01556 -0.027081 0)
(1.01592 -0.029157 0)
(1.01621 -0.0312585 0)
(1.01641 -0.0333778 0)
(1.01652 -0.0355065 0)
(1.01652 -0.0376354 0)
(1.01641 -0.0397549 0)
(1.01619 -0.0418548 0)
(1.01584 -0.0439246 0)
(1.01536 -0.0459536 0)
(1.01474 -0.0479311 0)
(1.01399 -0.0498461 0)
(1.0131 -0.051688 0)
(1.01208 -0.0534466 0)
(1.01092 -0.0551118 0)
(1.00964 -0.0566745 0)
(1.00824 -0.0581261 0)
(1.00672 -0.0594589 0)
(1.0051 -0.0606667 0)
(1.00338 -0.061744 0)
(1.00158 -0.0626868 0)
(0.999711 -0.0634924 0)
(0.997779 -0.0641597 0)
(0.9958 -0.0646886 0)
(0.993787 -0.0650807 0)
(0.991752 -0.065339 0)
(0.989707 -0.0654676 0)
(0.987664 -0.0654717 0)
(0.985634 -0.0653575 0)
(0.983626 -0.0651318 0)
(0.98165 -0.0648016 0)
(0.979715 -0.0643744 0)
(0.977827 -0.0638584 0)
(0.975993 -0.0632624 0)
(0.974217 -0.0625957 0)
(0.972504 -0.0618682 0)
(0.970858 -0.0610892 0)
(0.969281 -0.0602676 0)
(0.967775 -0.0594113 0)
(0.966337 -0.0585268 0)
(0.964964 -0.0576205 0)
(0.963654 -0.056698 0)
(0.962404 -0.0557652 0)
(0.961215 -0.0548275 0)
(0.960088 -0.0538901 0)
(0.959024 -0.0529574 0)
(0.95802 -0.0520333 0)
(0.957076 -0.0511212 0)
(0.956189 -0.0502242 0)
(0.955357 -0.0493448 0)
(0.954576 -0.0484851 0)
(0.953843 -0.0476472 0)
(0.953157 -0.0468325 0)
(0.952515 -0.0460427 0)
(1.00992 -0.000739591 0)
(1.01004 -0.00248981 0)
(1.01025 -0.0039987 0)
(1.01054 -0.0056416 0)
(1.01092 -0.00723425 0)
(1.01136 -0.00887207 0)
(1.01186 -0.010544 0)
(1.01241 -0.0122596 0)
(1.01299 -0.0140261 0)
(1.0136 -0.0158475 0)
(1.01422 -0.0177261 0)
(1.01484 -0.0196629 0)
(1.01545 -0.0216573 0)
(1.01604 -0.0237072 0)
(1.01659 -0.0258094 0)
(1.01709 -0.0279595 0)
(1.01753 -0.030152 0)
(1.0179 -0.0323803 0)
(1.01818 -0.0346372 0)
(1.01836 -0.0369142 0)
(1.01844 -0.0392025 0)
(1.0184 -0.0414923 0)
(1.01823 -0.0437736 0)
(1.01793 -0.0460356 0)
(1.01749 -0.0482673 0)
(1.0169 -0.0504574 0)
(1.01617 -0.0525943 0)
(1.01528 -0.0546667 0)
(1.01424 -0.056663 0)
(1.01306 -0.058572 0)
(1.01173 -0.060383 0)
(1.01026 -0.0620858 0)
(1.00865 -0.063671 0)
(1.00692 -0.0651301 0)
(1.00508 -0.0664556 0)
(1.00313 -0.0676415 0)
(1.00109 -0.0686828 0)
(0.998973 -0.0695763 0)
(0.996791 -0.0703202 0)
(0.994558 -0.0709144 0)
(0.992288 -0.0713601 0)
(0.989996 -0.0716602 0)
(0.987694 -0.0718186 0)
(0.985397 -0.0718408 0)
(0.983116 -0.0717333 0)
(0.980862 -0.0715041 0)
(0.978646 -0.0711619 0)
(0.976475 -0.0707162 0)
(0.974358 -0.0701763 0)
(0.9723 -0.0695514 0)
(0.970307 -0.0688499 0)
(0.968383 -0.0680803 0)
(0.966529 -0.0672509 0)
(0.964747 -0.0663707 0)
(0.963041 -0.0654488 0)
(0.961414 -0.0644943 0)
(0.95987 -0.0635154 0)
(0.95841 -0.0625196 0)
(0.957031 -0.0615132 0)
(0.955729 -0.0605019 0)
(0.9545 -0.0594909 0)
(0.953339 -0.0584851 0)
(0.952244 -0.0574888 0)
(0.951212 -0.0565059 0)
(0.950241 -0.0555397 0)
(0.949328 -0.0545932 0)
(0.94847 -0.0536687 0)
(0.947666 -0.0527685 0)
(0.946912 -0.0518944 0)
(1.01058 -0.000753109 0)
(1.0107 -0.00252922 0)
(1.01094 -0.00406438 0)
(1.01126 -0.00573645 0)
(1.01167 -0.00735822 0)
(1.01216 -0.00902951 0)
(1.01271 -0.0107383 0)
(1.01331 -0.012495 0)
(1.01395 -0.0143074 0)
(1.01463 -0.0161803 0)
(1.01532 -0.0181167 0)
(1.01602 -0.0201181 0)
(1.01671 -0.0221846 0)
(1.01738 -0.0243148 0)
(1.01802 -0.026506 0)
(1.01861 -0.0287543 0)
(1.01914 -0.0310548 0)
(1.01959 -0.0334014 0)
(1.01996 -0.0357872 0)
(1.02023 -0.0382042 0)
(1.02039 -0.0406439 0)
(1.02043 -0.0430967 0)
(1.02033 -0.0455528 0)
(1.0201 -0.0480015 0)
(1.01971 -0.0504316 0)
(1.01917 -0.0528317 0)
(1.01847 -0.0551898 0)
(1.0176 -0.0574939 0)
(1.01657 -0.0597317 0)
(1.01537 -0.061891 0)
(1.01402 -0.0639597 0)
(1.0125 -0.065926 0)
(1.01083 -0.0677789 0)
(1.00901 -0.0695077 0)
(1.00705 -0.0711029 0)
(1.00497 -0.0725561 0)
(1.00278 -0.0738601 0)
(1.00048 -0.0750092 0)
(0.998106 -0.0759993 0)
(0.995656 -0.0768279 0)
(0.993152 -0.0774943 0)
(0.990609 -0.0779993 0)
(0.988043 -0.0783458 0)
(0.985468 -0.0785378 0)
(0.982899 -0.0785812 0)
(0.98035 -0.0784826 0)
(0.977833 -0.0782496 0)
(0.97536 -0.0778905 0)
(0.972941 -0.0774147 0)
(0.970584 -0.0768322 0)
(0.968297 -0.0761546 0)
(0.966088 -0.0753934 0)
(0.963961 -0.0745604 0)
(0.961921 -0.0736663 0)
(0.959969 -0.0727206 0)
(0.958104 -0.0717319 0)
(0.956322 -0.0707084 0)
(0.95462 -0.0696581 0)
(0.952999 -0.0685889 0)
(0.951459 -0.0675083 0)
(0.950001 -0.0664232 0)
(0.948625 -0.0653393 0)
(0.947328 -0.0642619 0)
(0.946109 -0.0631957 0)
(0.944963 -0.0621446 0)
(0.943888 -0.061112 0)
(0.94288 -0.0601012 0)
(0.941935 -0.0591147 0)
(0.94105 -0.058155 0)
(1.01121 -0.000765431 0)
(1.01134 -0.00256448 0)
(1.0116 -0.00412335 0)
(1.01195 -0.00582149 0)
(1.01239 -0.00746909 0)
(1.01292 -0.0091702 0)
(1.01352 -0.0109118 0)
(1.01418 -0.0127048 0)
(1.01489 -0.0145581 0)
(1.01563 -0.0164769 0)
(1.0164 -0.018465 0)