/*--------------------------------*- C++ -*----------------------------------*\
  =========                 |
  \\      /  F ield         | OpenFOAM: The Open Source CFD Toolbox
   \\    /   O peration     | Website:  https://openfoam.org
    \\  /    A nd           | Version:  10
     \\/     M anipulation  |
\*---------------------------------------------------------------------------*/
FoamFile
{
    format      ascii;
    class       volVectorField;
    location    "210";
    object      U;
}
// * * * * * * * * * * * * * * * * * * * * * * * * * * * * * * * * * * * * * //

dimensions      [0 1 -1 0 0 0 0];

internalField   nonuniform List<vector> 
66268
(
(1 -4.8908e-05 0)
(1 -0.000179296 0)
(1 -0.000285496 0)
(1 -0.000395844 0)
(1 -0.000502628 0)
(1 -0.000606348 0)
(1 -0.000707535 0)
(1 -0.000806105 0)
(1 -0.000901826 0)
(1 -0.000994436 0)
(1 -0.00108362 0)
(1 -0.001169 0)
(1 -0.00125018 0)
(1 -0.00132675 0)
(1 -0.0013983 0)
(1 -0.00146444 0)
(1 -0.00152481 0)
(1 -0.0015791 0)
(1 -0.00162703 0)
(1 -0.00166841 0)
(1 -0.00170309 0)
(1 -0.00173099 0)
(1 -0.00175211 0)
(1 -0.00176652 0)
(1 -0.00177434 0)
(1 -0.00177576 0)
(1 -0.00177101 0)
(1 -0.00176039 0)
(0.999999 -0.00174423 0)
(0.999999 -0.00172288 0)
(0.999999 -0.00169672 0)
(0.999999 -0.00166615 0)
(0.999999 -0.00163159 0)
(0.999999 -0.00159345 0)
(0.999999 -0.00155218 0)
(0.999999 -0.00150821 0)
(0.999999 -0.00146198 0)
(1 -0.00141392 0)
(1 -0.00136439 0)
(1 -0.00131373 0)
(1 -0.00126221 0)
(1 -0.00121004 0)
(1 -0.0011574 0)
(1 -0.00110441 0)
(0.999999 -0.00105122 0)
(0.999997 -0.000997961 0)
(0.999993 -0.00094482 0)
(0.999987 -0.000892011 0)
(0.999978 -0.000839799 0)
(0.999966 -0.000788478 0)
(0.999952 -0.000738321 0)
(0.999939 -0.000689536 0)
(0.999928 -0.000642226 0)
(0.999922 -0.000596399 0)
(0.99992 -0.000552002 0)
(0.999922 -0.00050897 0)
(0.999927 -0.000467257 0)
(0.999934 -0.000426852 0)
(0.999942 -0.000387773 0)
(0.99995 -0.000350054 0)
(0.999957 -0.000313731 0)
(0.999963 -0.000278835 0)
(0.999968 -0.000245381 0)
(0.999973 -0.000213373 0)
(0.999976 -0.000182802 0)
(0.999979 -0.000153642 0)
(0.999981 -0.000125861 0)
(0.999983 -9.94599e-05 0)
(0.999984 -7.44423e-05 0)
(1.00021 -0.000143411 0)
(1.00021 -0.000517734 0)
(1.00021 -0.000822054 0)
(1.00022 -0.00114183 0)
(1.00022 -0.00145016 0)
(1.00022 -0.00174971 0)
(1.00022 -0.00204239 0)
(1.00022 -0.00232776 0)
(1.00023 -0.00260518 0)
(1.00023 -0.00287394 0)
(1.00022 -0.00313311 0)
(1.00022 -0.00338163 0)
(1.00022 -0.00361834 0)
(1.00021 -0.00384203 0)
(1.00021 -0.00405151 0)
(1.0002 -0.00424563 0)
(1.00019 -0.0044233 0)
(1.00017 -0.00458356 0)
(1.00016 -0.00472561 0)
(1.00014 -0.00484881 0)
(1.00012 -0.00495268 0)
(1.0001 -0.00503698 0)
(1.00007 -0.00510164 0)
(1.00005 -0.00514679 0)
(1.00002 -0.00517276 0)
(0.999995 -0.00518003 0)
(0.999966 -0.00516926 0)
(0.999936 -0.00514126 0)
(0.999906 -0.00509695 0)
(0.999875 -0.00503736 0)
(0.999844 -0.00496363 0)
(0.999813 -0.00487696 0)
(0.999781 -0.00477856 0)
(0.99975 -0.00466964 0)
(0.99972 -0.00455135 0)
(0.99969 -0.00442481 0)
(0.999661 -0.00429104 0)
(0.999632 -0.00415105 0)
(0.999604 -0.00400577 0)
(0.999577 -0.00385616 0)
(0.999551 -0.0037032 0)
(0.999525 -0.00354788 0)
(0.9995 -0.00339121 0)
(0.999476 -0.00323415 0)
(0.999452 -0.0030776 0)
(0.999431 -0.00292234 0)
(0.999413 -0.00276901 0)
(0.999398 -0.00261811 0)
(0.999389 -0.00246995 0)
(0.999384 -0.00232472 0)
(0.999383 -0.00218251 0)
(0.999383 -0.00204338 0)
(0.999381 -0.00190746 0)
(0.999376 -0.00177495 0)
(0.999365 -0.00164607 0)
(0.999349 -0.001521 0)
(0.99933 -0.0013999 0)
(0.99931 -0.00128283 0)
(0.999289 -0.00116979 0)
(0.99927 -0.00106073 0)
(0.999252 -0.000955599 0)
(0.999236 -0.000854322 0)
(0.999222 -0.000756829 0)
(0.999211 -0.000663058 0)
(0.999201 -0.000572949 0)
(0.999192 -0.000486443 0)
(0.999184 -0.000403474 0)
(0.999178 -0.000324003 0)
(0.999172 -0.000248082 0)
(1.00062 -0.000232754 0)
(1.00062 -0.000828726 0)
(1.00063 -0.00131308 0)
(1.00064 -0.00182755 0)
(1.00064 -0.00232149 0)
(1.00065 -0.00280197 0)
(1.00066 -0.00327233 0)
(1.00066 -0.00373159 0)
(1.00067 -0.00417882 0)
(1.00067 -0.00461298 0)
(1.00067 -0.00503261 0)
(1.00066 -0.00543601 0)
(1.00065 -0.00582133 0)
(1.00064 -0.00618662 0)
(1.00062 -0.00652992 0)
(1.00059 -0.00684931 0)
(1.00056 -0.00714298 0)
(1.00052 -0.0074093 0)
(1.00047 -0.00764684 0)
(1.00042 -0.00785447 0)
(1.00036 -0.0080313 0)
(1.0003 -0.00817679 0)
(1.00023 -0.0082907 0)
(1.00016 -0.0083731 0)
(1.00008 -0.0084244 0)
(1 -0.0084453 0)
(0.999916 -0.00843675 0)
(0.999829 -0.00839997 0)
(0.99974 -0.00833639 0)
(0.99965 -0.00824759 0)
(0.99956 -0.00813533 0)
(0.99947 -0.00800143 0)
(0.99938 -0.00784777 0)
(0.999291 -0.00767627 0)
(0.999204 -0.00748884 0)
(0.999119 -0.00728742 0)
(0.999037 -0.00707398 0)
(0.998957 -0.00685047 0)
(0.998879 -0.00661878 0)
(0.998804 -0.0063807 0)
(0.998733 -0.00613782 0)
(0.998664 -0.00589151 0)
(0.998598 -0.00564295 0)
(0.998535 -0.0053931 0)
(0.998475 -0.00514279 0)
(0.998418 -0.00489277 0)
(0.998362 -0.00464375 0)
(0.998308 -0.00439642 0)
(0.998253 -0.00415153 0)
(0.998198 -0.00390984 0)
(0.998144 -0.00367215 0)
(0.998093 -0.00343918 0)
(0.998047 -0.00321153 0)
(0.998009 -0.00298963 0)
(0.997978 -0.00277376 0)
(0.997956 -0.00256413 0)
(0.997939 -0.00236088 0)
(0.997926 -0.00216411 0)
(0.997916 -0.00197394 0)
(0.997907 -0.00179044 0)
(0.997898 -0.00161366 0)
(0.997889 -0.00144363 0)
(0.997881 -0.00128031 0)
(0.997872 -0.00112365 0)
(0.997863 -0.000973574 0)
(0.997854 -0.000829967 0)
(0.997845 -0.000692705 0)
(0.997837 -0.000561691 0)
(0.997829 -0.000436827 0)
(1.00118 -0.000316029 0)
(1.00118 -0.0011149 0)
(1.00119 -0.00176655 0)
(1.00121 -0.00246276 0)
(1.00122 -0.00312887 0)
(1.00124 -0.00377847 0)
(1.00125 -0.00441567 0)
(1.00126 -0.00503892 0)
(1.00127 -0.00564727 0)
(1.00128 -0.00623944 0)
(1.00128 -0.00681351 0)
(1.00127 -0.00736723 0)
(1.00125 -0.00789811 0)
(1.00122 -0.0084035 0)
(1.00119 -0.00888068 0)
(1.00114 -0.00932696 0)
(1.00108 -0.00973977 0)
(1.00101 -0.0101167 0)
(1.00092 -0.0104557 0)
(1.00083 -0.010755 0)
(1.00072 -0.011013 0)
(1.00061 -0.011229 0)
(1.00048 -0.0114021 0)
(1.00034 -0.0115325 0)
(1.00019 -0.0116202 0)
(1.00004 -0.011666 0)
(0.999882 -0.0116711 0)
(0.999719 -0.0116368 0)
(0.999552 -0.0115649 0)
(0.999383 -0.0114574 0)
(0.999212 -0.0113166 0)
(0.999042 -0.0111447 0)
(0.998873 -0.0109445 0)
(0.998706 -0.0107185 0)
(0.998542 -0.0104694 0)
(0.998382 -0.0101998 0)
(0.998225 -0.00991245 0)
(0.998074 -0.00960965 0)
(0.997928 -0.00929373 0)
(0.997788 -0.00896684 0)
(0.997653 -0.00863106 0)
(0.997524 -0.0082884 0)
(0.997402 -0.00794086 0)
(0.997285 -0.00759041 0)
(0.997175 -0.00723889 0)
(0.997071 -0.00688804 0)
(0.996975 -0.00653939 0)
(0.996886 -0.00619425 0)
(0.996807 -0.00585371 0)
(0.996738 -0.00551862 0)
(0.996677 -0.00518963 0)
(0.996623 -0.00486731 0)
(0.99657 -0.00455216 0)
(0.996518 -0.00424469 0)
(0.996463 -0.00394542 0)
(0.996407 -0.0036548 0)
(0.99635 -0.00337318 0)
(0.996294 -0.00310076 0)
(0.99624 -0.00283767 0)
(0.99619 -0.0025839 0)
(0.996144 -0.00233941 0)
(0.996102 -0.00210411 0)
(0.996064 -0.00187791 0)
(0.99603 -0.00166066 0)
(0.995999 -0.00145225 0)
(0.995971 -0.00125251 0)
(0.995946 -0.00106128 0)
(0.995923 -0.000878433 0)
(0.995902 -0.000703881 0)
(1.00182 -0.000392787 0)
(1.00183 -0.00137872 0)
(1.00185 -0.00218835 0)
(1.00187 -0.00305446 0)
(1.0019 -0.00388125 0)
(1.00192 -0.00469039 0)
(1.00195 -0.00548564 0)
(1.00197 -0.00626515 0)
(1.00199 -0.00702822 0)
(1.002 -0.00777338 0)
(1.002 -0.00849834 0)
(1.00199 -0.00920043 0)
(1.00197 -0.00987657 0)
(1.00194 -0.0105235 0)
(1.00188 -0.0111376 0)
(1.00181 -0.0117157 0)
(1.00173 -0.0122541 0)
(1.00162 -0.0127498 0)
(1.00149 -0.0131999 0)
(1.00135 -0.0136018 0)
(1.00119 -0.0139533 0)
(1.00101 -0.014253 0)
(1.00081 -0.0144996 0)
(1.0006 -0.0146926 0)
(1.00037 -0.014832 0)
(1.00013 -0.0149183 0)
(0.999887 -0.0149525 0)
(0.99963 -0.0149362 0)
(0.999368 -0.0148712 0)
(0.999101 -0.01476 0)
(0.998832 -0.0146051 0)
(0.998561 -0.0144095 0)
(0.998292 -0.0141763 0)
(0.998025 -0.0139088 0)
(0.997762 -0.0136102 0)
(0.997505 -0.0132839 0)
(0.997253 -0.012933 0)
(0.997009 -0.0125609 0)
(0.996773 -0.0121708 0)
(0.996545 -0.011766 0)
(0.996326 -0.0113495 0)
(0.996117 -0.0109242 0)
(0.995916 -0.0104925 0)
(0.995725 -0.0100569 0)
(0.995543 -0.00961925 0)
(0.995369 -0.00918123 0)
(0.995203 -0.00874436 0)
(0.995043 -0.00830997 0)
(0.994888 -0.00787935 0)
(0.994739 -0.00745371 0)
(0.994594 -0.00703427 0)
(0.994458 -0.00662218 0)
(0.994333 -0.00621846 0)
(0.99422 -0.00582394 0)
(0.994122 -0.00543923 0)
(0.994037 -0.00506481 0)
(0.993963 -0.00470107 0)
(0.993899 -0.00434832 0)
(0.99384 -0.00400682 0)
(0.993787 -0.00367679 0)
(0.993737 -0.00335836 0)
(0.99369 -0.0030516 0)
(0.993645 -0.00275652 0)
(0.993603 -0.00247306 0)
(0.993563 -0.00220112 0)
(0.993526 -0.00194054 0)
(0.993491 -0.00169113 0)
(0.993458 -0.00145274 0)
(0.993428 -0.0012252 0)
(1.00254 -0.000464163 0)
(1.00255 -0.00162407 0)
(1.00258 -0.00258334 0)
(1.00261 -0.00360898 0)
(1.00265 -0.00458703 0)
(1.00269 -0.00554789 0)
(1.00273 -0.00649418 0)
(1.00276 -0.0074241 0)
(1.00279 -0.00833738 0)
(1.00282 -0.00923243 0)
(1.00282 -0.0101068 0)
(1.00282 -0.0109573 0)
(1.0028 -0.0117806 0)
(1.00275 -0.0125727 0)
(1.00269 -0.0133294 0)
(1.0026 -0.0140466 0)
(1.00248 -0.01472 0)
(1.00234 -0.0153456 0)
(1.00217 -0.0159195 0)
(1.00198 -0.0164384 0)
(1.00176 -0.0168993 0)
(1.00151 -0.0172998 0)
(1.00124 -0.017638 0)
(1.00094 -0.0179129 0)
(1.00063 -0.0181238 0)
(1.00029 -0.0182709 0)
(0.999943 -0.0183549 0)
(0.99958 -0.0183773 0)
(0.999206 -0.01834 0)
(0.998825 -0.0182453 0)
(0.998438 -0.0180962 0)
(0.99805 -0.0178958 0)
(0.997661 -0.0176476 0)
(0.997275 -0.0173552 0)
(0.996893 -0.0170226 0)
(0.996518 -0.0166536 0)
(0.996151 -0.0162523 0)
(0.995794 -0.0158225 0)
(0.995447 -0.0153681 0)
(0.995113 -0.0148928 0)
(0.99479 -0.0143999 0)
(0.994481 -0.0138929 0)
(0.994185 -0.0133747 0)
(0.993903 -0.0128487 0)
(0.993634 -0.0123178 0)
(0.993379 -0.0117848 0)
(0.993139 -0.0112525 0)
(0.992914 -0.0107233 0)
(0.992705 -0.0101993 0)
(0.992513 -0.00968206 0)
(0.992337 -0.00917297 0)
(0.992174 -0.00867301 0)
(0.992022 -0.00818297 0)
(0.991876 -0.00770359 0)
(0.991735 -0.0072356 0)
(0.991597 -0.0067797 0)
(0.991465 -0.00633649 0)
(0.991339 -0.00590645 0)
(0.991221 -0.00548991 0)
(0.991112 -0.00508711 0)
(0.991011 -0.00469816 0)
(0.99092 -0.00432313 0)
(0.990836 -0.003962 0)
(0.990759 -0.00361471 0)
(0.99069 -0.00328116 0)
(0.990626 -0.0029612 0)
(0.990568 -0.00265465 0)
(0.990514 -0.00236133 0)
(0.990465 -0.0020811 0)
(1.00333 -0.000531911 0)
(1.00334 -0.00185507 0)
(1.00338 -0.00295567 0)
(1.00342 -0.00413212 0)
(1.00347 -0.00525389 0)
(1.00353 -0.00636009 0)
(1.00358 -0.00745184 0)
(1.00364 -0.0085278 0)
(1.00369 -0.00958819 0)
(1.00372 -0.0106315 0)
(1.00374 -0.011655 0)
(1.00375 -0.0126556 0)
(1.00373 -0.0136293 0)
(1.00368 -0.0145718 0)
(1.00361 -0.0154782 0)
(1.00351 -0.0163436 0)
(1.00337 -0.017163 0)
(1.00319 -0.0179314 0)
(1.00298 -0.0186442 0)
(1.00274 -0.0192969 0)
(1.00246 -0.0198855 0)
(1.00214 -0.0204069 0)
(1.00179 -0.0208581 0)
(1.00141 -0.0212373 0)
(1.00099 -0.021543 0)
(1.00055 -0.0217749 0)
(1.00009 -0.0219332 0)
(0.999611 -0.0220188 0)
(0.999113 -0.0220333 0)
(0.998602 -0.021979 0)
(0.998083 -0.0218589 0)
(0.997559 -0.0216761 0)
(0.997033 -0.0214345 0)
(0.996509 -0.0211383 0)
(0.995988 -0.0207917 0)
(0.995475 -0.0203993 0)
(0.994972 -0.0199658 0)
(0.99448 -0.0194958 0)
(0.994002 -0.0189938 0)
(0.993538 -0.0184644 0)
(0.993091 -0.017912 0)
(0.992661 -0.017341 0)
(0.992249 -0.0167553 0)
(0.991855 -0.0161585 0)
(0.99148 -0.0155541 0)
(0.991123 -0.0149449 0)
(0.990784 -0.0143335 0)
(0.990462 -0.0137224 0)
(0.990154 -0.0131138 0)
(0.989861 -0.0125096 0)
(0.98958 -0.011912 0)
(0.989314 -0.0113229 0)
(0.989066 -0.0107438 0)
(0.988837 -0.0101762 0)
(0.98863 -0.0096213 0)
(0.988444 -0.00907988 0)
(0.988276 -0.00855264 0)
(0.988124 -0.00804016 0)
(0.987984 -0.00754293 0)
(0.987856 -0.00706136 0)
(0.987736 -0.00659576 0)
(0.987624 -0.00614634 0)
(0.98752 -0.00571323 0)
(0.987422 -0.00529645 0)
(0.987331 -0.00489595 0)
(0.987247 -0.00451159 0)
(0.987169 -0.0041432 0)
(0.987096 -0.0037906 0)
(0.987029 -0.00345363 0)
(1.00417 -0.000597047 0)
(1.00419 -0.00207403 0)
(1.00424 -0.00330771 0)
(1.00429 -0.00462732 0)
(1.00436 -0.00588621 0)
(1.00444 -0.00713203 0)
(1.00452 -0.00836432 0)
(1.0046 -0.00958252 0)
(1.00467 -0.0107874 0)
(1.00472 -0.0119777 0)
(1.00476 -0.0131506 0)
(1.00478 -0.014303 0)
(1.00478 -0.0154307 0)
(1.00474 -0.0165289 0)
(1.00466 -0.0175923 0)
(1.00455 -0.0186154 0)
(1.00439 -0.0195922 0)
(1.00419 -0.0205171 0)
(1.00395 -0.0213842 0)
(1.00366 -0.0221882 0)
(1.00332 -0.022924 0)
(1.00293 -0.0235873 0)
(1.0025 -0.0241742 0)
(1.00203 -0.0246816 0)
(1.00151 -0.0251074 0)
(1.00096 -0.02545 0)
(1.00038 -0.0257088 0)
(0.999774 -0.0258843 0)
(0.999141 -0.0259775 0)
(0.998489 -0.0259904 0)
(0.997824 -0.0259256 0)
(0.997148 -0.0257864 0)
(0.996468 -0.0255766 0)
(0.995787 -0.0253005 0)
(0.99511 -0.0249627 0)
(0.99444 -0.0245681 0)
(0.99378 -0.0241217 0)
(0.993135 -0.0236287 0)
(0.992506 -0.0230941 0)
(0.991895 -0.022523 0)
(0.991305 -0.0219203 0)
(0.990737 -0.0212906 0)
(0.990191 -0.0206386 0)
(0.989669 -0.0199687 0)
(0.989172 -0.0192852 0)
(0.988699 -0.0185925 0)
(0.988252 -0.0178947 0)
(0.98783 -0.0171956 0)
(0.987434 -0.0164986 0)
(0.987065 -0.0158067 0)
(0.986722 -0.0151224 0)
(0.986403 -0.0144474 0)
(0.986104 -0.0137834 0)
(0.98582 -0.0131315 0)
(0.985549 -0.0124931 0)
(0.98529 -0.0118692 0)
(0.985043 -0.0112609 0)
(0.98481 -0.010669 0)
(0.984591 -0.0100941 0)
(0.984389 -0.00953681 0)
(0.984202 -0.00899739 0)
(0.98403 -0.00847611 0)
(0.983872 -0.00797313 0)
(0.983727 -0.00748849 0)
(0.983594 -0.0070222 0)
(0.983472 -0.00657418 0)
(0.983359 -0.00614427 0)
(0.983256 -0.00573235 0)
(0.983161 -0.00533828 0)
(1.00507 -0.000659466 0)
(1.00509 -0.00228095 0)
(1.00515 -0.00363967 0)
(1.00522 -0.00509492 0)
(1.00531 -0.00648418 0)
(1.00542 -0.00786368 0)
(1.00552 -0.0092313 0)
(1.00563 -0.0105876 0)
(1.00573 -0.0119339 0)
(1.00581 -0.0132691 0)
(1.00588 -0.014591 0)
(1.00592 -0.0158961 0)
(1.00593 -0.0171804 0)
(1.00591 -0.0184387 0)
(1.00584 -0.0196654 0)
(1.00573 -0.0208544 0)
(1.00556 -0.021999 0)
(1.00534 -0.0230927 0)
(1.00507 -0.0241288 0)
(1.00474 -0.0251008 0)
(1.00434 -0.0260026 0)
(1.00389 -0.0268284 0)
(1.00339 -0.0275733 0)
(1.00282 -0.0282329 0)
(1.00221 -0.0288038 0)
(1.00155 -0.0292834 0)
(1.00084 -0.02967 0)
(1.0001 -0.0299632 0)
(0.999327 -0.0301631 0)
(0.998524 -0.0302711 0)
(0.997701 -0.0302892 0)
(0.996862 -0.0302204 0)
(0.996014 -0.0300681 0)
(0.995162 -0.0298367 0)
(0.994311 -0.029531 0)
(0.993467 -0.029156 0)
(0.992634 -0.0287173 0)
(0.991815 -0.0282206 0)
(0.991015 -0.027672 0)
(0.990236 -0.0270772 0)
(0.98948 -0.0264424 0)
(0.98875 -0.0257734 0)
(0.988047 -0.0250759 0)
(0.987373 -0.0243553 0)
(0.986729 -0.0236167 0)
(0.986115 -0.0228643 0)
(0.985531 -0.0221023 0)
(0.984976 -0.0213342 0)
(0.984449 -0.0205633 0)
(0.983948 -0.0197926 0)
(0.983472 -0.0190252 0)
(0.983021 -0.0182639 0)
(0.982596 -0.0175116 0)
(0.982201 -0.0167705 0)
(0.981836 -0.0160429 0)
(0.981502 -0.0153302 0)
(0.981196 -0.0146339 0)
(0.980915 -0.0139549 0)
(0.980655 -0.0132942 0)
(0.980414 -0.0126526 0)
(0.980189 -0.0120308 0)
(0.97998 -0.0114292 0)
(0.979786 -0.0108481 0)
(0.979604 -0.0102878 0)
(0.979436 -0.00974837 0)
(0.979279 -0.00922976 0)
(0.979134 -0.00873187 0)
(0.979 -0.0082546 0)
(0.978876 -0.00779779 0)
(1.006 -0.000718423 0)
(1.00603 -0.00247443 0)
(1.00611 -0.00395025 0)
(1.0062 -0.005533 0)
(1.00631 -0.00704512 0)
(1.00644 -0.00855151 0)
(1.00658 -0.0100484 0)
(1.00672 -0.0115375 0)
(1.00685 -0.0130208 0)
(1.00697 -0.0144978 0)
(1.00707 -0.0159665 0)
(1.00715 -0.0174237 0)
(1.00718 -0.0188653 0)
(1.00718 -0.0202862 0)
(1.00713 -0.0216805 0)
(1.00702 -0.0230415 0)
(1.00686 -0.0243621 0)
(1.00663 -0.025635 0)
(1.00634 -0.0268525 0)
(1.00597 -0.0280071 0)
(1.00553 -0.0290914 0)
(1.00503 -0.0300985 0)
(1.00445 -0.031022 0)
(1.0038 -0.0318563 0)
(1.00309 -0.0325963 0)
(1.00232 -0.0332383 0)
(1.00149 -0.0337792 0)
(1.00062 -0.0342172 0)
(0.999695 -0.0345515 0)
(0.998736 -0.0347823 0)
(0.997748 -0.034911 0)
(0.996736 -0.0349398 0)
(0.995709 -0.0348719 0)
(0.994672 -0.0347114 0)
(0.993633 -0.034463 0)
(0.992598 -0.0341321 0)
(0.991572 -0.0337243 0)
(0.990561 -0.0332459 0)
(0.989569 -0.0327031 0)
(0.988601 -0.0321022 0)
(0.987659 -0.0314498 0)
(0.986748 -0.0307518 0)
(0.985869 -0.0300144 0)
(0.985025 -0.0292435 0)
(0.984217 -0.028445 0)
(0.983446 -0.0276244 0)
(0.982713 -0.0267876 0)
(0.982018 -0.02594 0)
(0.981362 -0.0250866 0)
(0.980746 -0.0242321 0)
(0.980169 -0.0233804 0)
(0.979629 -0.0225347 0)
(0.979123 -0.0216977 0)
(0.978645 -0.0208716 0)
(0.978191 -0.0200586 0)
(0.97776 -0.0192606 0)
(0.977352 -0.0184793 0)
(0.976966 -0.0177163 0)
(0.976605 -0.0169728 0)
(0.976269 -0.0162498 0)
(0.975958 -0.015548 0)
(0.97567 -0.0148681 0)
(0.975405 -0.0142105 0)
(0.97516 -0.0135755 0)
(0.974934 -0.0129634 0)
(0.974725 -0.012374 0)
(0.974533 -0.0118076 0)
(0.974355 -0.0112639 0)
(0.974192 -0.010743 0)
(1.00696 -0.000773177 0)
(1.007 -0.00265292 0)
(1.00709 -0.00423754 0)
(1.0072 -0.00593875 0)
(1.00735 -0.00756526 0)
(1.00751 -0.00919074 0)
(1.00768 -0.0108096 0)
(1.00786 -0.0124249 0)
(1.00803 -0.0140395 0)
(1.00819 -0.0156533 0)
(1.00833 -0.0172648 0)
(1.00844 -0.0188714 0)
(1.00851 -0.0204689 0)
(1.00854 -0.0220525 0)
(1.00851 -0.023616 0)
(1.00843 -0.0251525 0)
(1.00827 -0.0266545 0)
(1.00805 -0.0281139 0)
(1.00774 -0.0295223 0)
(1.00736 -0.0308711 0)
(1.00689 -0.0321519 0)
(1.00633 -0.0333563 0)
(1.00569 -0.0344765 0)
(1.00497 -0.0355055 0)
(1.00417 -0.0364366 0)
(1.0033 -0.0372645 0)
(1.00235 -0.0379846 0)
(1.00134 -0.0385935 0)
(1.00027 -0.0390891 0)
(0.999155 -0.0394705 0)
(0.997996 -0.0397378 0)
(0.996805 -0.0398924 0)
(0.995589 -0.0399369 0)
(0.994356 -0.0398746 0)
(0.993116 -0.03971 0)
(0.991874 -0.0394482 0)
(0.99064 -0.0390949 0)
(0.989418 -0.0386564 0)
(0.988217 -0.0381395 0)
(0.987039 -0.0375512 0)
(0.985892 -0.0368988 0)
(0.984777 -0.0361897 0)
(0.983699 -0.0354314 0)
(0.98266 -0.0346311 0)
(0.981662 -0.0337958 0)
(0.980707 -0.032932 0)
(0.979796 -0.0320455 0)
(0.978928 -0.0311415 0)
(0.978103 -0.0302249 0)
(0.97732 -0.0293 0)
(0.976575 -0.0283711 0)
(0.975868 -0.0274423 0)
(0.975201 -0.0265179 0)
(0.974575 -0.0256015 0)
(0.973993 -0.0246965 0)
(0.973454 -0.0238056 0)
(0.972956 -0.0229312 0)
(0.972495 -0.0220751 0)
(0.972068 -0.021239 0)
(0.97167 -0.0204242 0)
(0.971299 -0.019632 0)
(0.970953 -0.0188634 0)
(0.97063 -0.0181191 0)
(0.97033 -0.0173996 0)
(0.970051 -0.0167053 0)
(0.969791 -0.0160365 0)
(0.969551 -0.0153932 0)
(0.969328 -0.0147754 0)
(0.969121 -0.0141831 0)
(1.00793 -0.000823321 0)
(1.00798 -0.00281541 0)
(1.00809 -0.00449992 0)
(1.00822 -0.00630978 0)
(1.00839 -0.00804146 0)
(1.00859 -0.00977726 0)
(1.0088 -0.0115098 0)
(1.00902 -0.0132435 0)
(1.00924 -0.0149821 0)
(1.00944 -0.0167261 0)
(1.00963 -0.0184747 0)
(1.00979 -0.0202257 0)
(1.0099 -0.0219756 0)
(1.00997 -0.0237193 0)
(1.00998 -0.025451 0)
(1.00993 -0.0271637 0)
(1.0098 -0.0288494 0)
(1.00958 -0.0304996 0)
(1.00928 -0.0321052 0)
(1.00889 -0.0336567 0)
(1.0084 -0.0351445 0)
(1.00781 -0.0365592 0)
(1.00713 -0.0378914 0)
(1.00634 -0.0391324 0)
(1.00546 -0.0402741 0)
(1.00449 -0.0413094 0)
(1.00343 -0.0422319 0)
(1.00229 -0.0430367 0)
(1.00108 -0.0437199 0)
(0.999806 -0.044279 0)
(0.998476 -0.0447128 0)
(0.997101 -0.0450214 0)
(0.995689 -0.0452061 0)
(0.994252 -0.0452697 0)
(0.992799 -0.0452157 0)
(0.991339 -0.045049 0)
(0.989881 -0.0447751 0)
(0.988432 -0.0444006 0)
(0.987002 -0.0439323 0)
(0.985595 -0.0433777 0)
(0.984219 -0.0427443 0)
(0.982879 -0.0420401 0)
(0.98158 -0.0412724 0)
(0.980325 -0.040449 0)
(0.979117 -0.0395772 0)
(0.97796 -0.0386644 0)
(0.976854 -0.037718 0)
(0.9758 -0.0367452 0)
(0.974801 -0.0357533 0)
(0.973855 -0.0347487 0)
(0.972964 -0.0337376 0)
(0.972126 -0.0327251 0)
(0.971339 -0.0317154 0)
(0.970597 -0.0307122 0)
(0.969895 -0.0297188 0)
(0.969229 -0.0287382 0)
(0.9686 -0.0277733 0)
(0.968006 -0.0268266 0)
(0.96745 -0.0259003 0)
(0.966931 -0.0249961 0)
(0.966448 -0.0241156 0)
(0.966 -0.0232598 0)
(0.965585 -0.0224298 0)
(0.965201 -0.0216262 0)
(0.964845 -0.0208496 0)
(0.964516 -0.0201004 0)
(0.964211 -0.0193788 0)
(0.963929 -0.0186849 0)
(0.963669 -0.018019 0)
(1.00891 -0.000868788 0)
(1.00896 -0.00296172 0)
(1.00909 -0.00473679 0)
(1.00925 -0.00664515 0)
(1.00945 -0.0084724 0)
(1.00968 -0.0103092 0)
(1.00994 -0.0121463 0)
(1.0102 -0.0139896 0)
(1.01047 -0.0158438 0)
(1.01073 -0.0177103 0)
(1.01097 -0.0195887 0)
(1.01118 -0.0214777 0)
(1.01135 -0.023374 0)
(1.01147 -0.0252733 0)
(1.01152 -0.0271698 0)
(1.01151 -0.0290565 0)
(1.01141 -0.0309255 0)
(1.01123 -0.0327678 0)
(1.01095 -0.0345737 0)
(1.01056 -0.0363332 0)
(1.01007 -0.0380357 0)
(1.00946 -0.0396703 0)
(1.00874 -0.0412266 0)
(1.0079 -0.0426942 0)
(1.00696 -0.0440634 0)
(1.0059 -0.0453251 0)
(1.00474 -0.0464713 0)
(1.00348 -0.047495 0)
(1.00213 -0.0483905 0)
(1.00071 -0.0491533 0)
(0.999206 -0.0497807 0)
(0.997646 -0.050271 0)
(0.996036 -0.0506244 0)
(0.994389 -0.0508421 0)
(0.992714 -0.0509271 0)
(0.991024 -0.0508833 0)
(0.989328 -0.0507159 0)
(0.987637 -0.0504309 0)
(0.98596 -0.0500352 0)
(0.984305 -0.0495365 0)
(0.982681 -0.0489427 0)
(0.981094 -0.0482624 0)
(0.97955 -0.0475046 0)
(0.978054 -0.0466783 0)
(0.97661 -0.0457925 0)
(0.975221 -0.044856 0)
(0.97389 -0.0438768 0)
(0.972617 -0.0428625 0)
(0.971403 -0.0418198 0)
(0.970248 -0.0407549 0)
(0.969149 -0.0396738 0)
(0.968104 -0.0385822 0)
(0.967115 -0.0374861 0)
(0.966183 -0.0363909 0)
(0.96531 -0.0353017 0)
(0.964497 -0.0342229 0)
(0.963741 -0.0331582 0)
(0.963038 -0.0321107 0)
(0.962384 -0.031083 0)
(0.961773 -0.0300775 0)
(0.961204 -0.0290962 0)
(0.960672 -0.0281409 0)
(0.960175 -0.027213 0)
(0.959713 -0.0263135 0)
(0.959282 -0.0254434 0)
(0.958882 -0.0246031 0)
(0.95851 -0.0237931 0)
(0.958165 -0.0230138 0)
(0.957845 -0.0222653 0)
(1.00988 -0.000909744 0)
(1.00995 -0.00309242 0)
(1.01009 -0.00494883 0)
(1.01027 -0.00694572 0)
(1.01051 -0.00885903 0)
(1.01078 -0.0107874 0)
(1.01108 -0.0127198 0)
(1.01139 -0.0146637 0)
(1.01171 -0.0166246 0)
(1.01203 -0.0186047 0)
(1.01233 -0.0206047 0)
(1.0126 -0.0226238 0)
(1.01283 -0.0246595 0)
(1.01301 -0.0267079 0)
(1.01312 -0.0287637 0)
(1.01316 -0.0308201 0)
(1.01312 -0.0328693 0)
(1.01297 -0.0349022 0)
(1.01272 -0.0369089 0)
(1.01236 -0.0388786 0)
(1.01187 -0.0408 0)
(1.01126 -0.0426613 0)
(1.01052 -0.0444506 0)
(1.00965 -0.0461562 0)
(1.00866 -0.0477667 0)
(1.00753 -0.0492713 0)
(1.00628 -0.0506598 0)
(1.00491 -0.0519233 0)
(1.00344 -0.0530539 0)
(1.00186 -0.0540454 0)
(1.0002 -0.0548926 0)
(0.998457 -0.0555923 0)
(0.996649 -0.0561428 0)
(0.994788 -0.0565438 0)
(0.992887 -0.0567968 0)
(0.990958 -0.0569046 0)
(0.989014 -0.0568716 0)
(0.987067 -0.0567032 0)
(0.985128 -0.056406 0)
(0.983208 -0.0559876 0)
(0.981315 -0.0554565 0)
(0.97946 -0.0548213 0)
(0.977649 -0.0540913 0)
(0.975888 -0.0532756 0)
(0.974185 -0.0523833 0)
(0.972543 -0.0514235 0)
(0.970966 -0.0504054 0)
(0.969456 -0.0493384 0)
(0.968016 -0.0482316 0)
(0.966646 -0.0470942 0)
(0.965348 -0.0459347 0)
(0.964122 -0.0447609 0)
(0.962967 -0.0435793 0)
(0.961876 -0.0423956 0)
(0.960846 -0.0412146 0)
(0.959872 -0.040041 0)
(0.95895 -0.0388791 0)
(0.958081 -0.0377329 0)
(0.957264 -0.0366058 0)
(0.956501 -0.0355008 0)
(0.955789 -0.0344204 0)
(0.955127 -0.0333666 0)
(0.954512 -0.0323412 0)
(0.95394 -0.0313456 0)
(0.95341 -0.0303808 0)
(0.952918 -0.0294478 0)
(0.952462 -0.0285472 0)
(0.952039 -0.0276795 0)
(0.951648 -0.0268452 0)
(1.01084 -0.000946538 0)
(1.01092 -0.00320872 0)
(1.01108 -0.00513782 0)
(1.01129 -0.00721388 0)
(1.01156 -0.00920422 0)
(1.01187 -0.0112151 0)
(1.01222 -0.0132338 0)
(1.01258 -0.0152691 0)
(1.01296 -0.0173277 0)
(1.01334 -0.0194125 0)
(1.0137 -0.0215252 0)
(1.01404 -0.0236659 0)
(1.01434 -0.0258327 0)
(1.01459 -0.0280226 0)
(1.01477 -0.0302306 0)
(1.01487 -0.0324506 0)
(1.01489 -0.0346749 0)
(1.0148 -0.0368946 0)
(1.01459 -0.0390997 0)
(1.01427 -0.041279 0)
(1.01381 -0.0434207 0)
(1.01321 -0.0455121 0)
(1.01247 -0.0475403 0)
(1.01158 -0.0494922 0)
(1.01055 -0.0513549 0)
(1.00937 -0.0531156 0)
(1.00804 -0.0547624 0)
(1.00658 -0.0562842 0)
(1.00499 -0.057671 0)
(1.00328 -0.0589141 0)
(1.00146 -0.0600064 0)
(0.999547 -0.0609423 0)
(0.997544 -0.0617179 0)
(0.995471 -0.0623312 0)
(0.993341 -0.0627817 0)
(0.991169 -0.063071 0)
(0.988969 -0.063202 0)
(0.986755 -0.0631794 0)
(0.98454 -0.0630092 0)
(0.982337 -0.0626984 0)
(0.980158 -0.0622553 0)
(0.978013 -0.0616889 0)
(0.975911 -0.0610088 0)
(0.973863 -0.0602255 0)
(0.971873 -0.0593497 0)
(0.969948 -0.0583922 0)
(0.968094 -0.0573638 0)
(0.966313 -0.0562746 0)
(0.964607 -0.0551339 0)
(0.962978 -0.0539503 0)
(0.961424 -0.0527319 0)
(0.959946 -0.0514866 0)
(0.958542 -0.0502222 0)
(0.957213 -0.0489463 0)
(0.955962 -0.0476666 0)
(0.954791 -0.0463894 0)
(0.953697 -0.0451205 0)
(0.952677 -0.0438647 0)
(0.951725 -0.0426261 0)
(0.950836 -0.0414085 0)
(0.950004 -0.0402151 0)
(0.949227 -0.0390488 0)
(0.948501 -0.0379119 0)
(0.947824 -0.0368064 0)
(0.947194 -0.0357339 0)
(0.946607 -0.0346956 0)
(0.946061 -0.0336924 0)
(0.945554 -0.0327251 0)
(0.945083 -0.0317943 0)
(1.01178 -0.000979636 0)
(1.01187 -0.00331221 0)
(1.01205 -0.00530618 0)
(1.01229 -0.00745293 0)
(1.0126 -0.00951207 0)
(1.01295 -0.0115971 0)
(1.01334 -0.0136936 0)
(1.01377 -0.0158117 0)
(1.0142 -0.017959 0)
(1.01465 -0.0201397 0)
(1.01508 -0.0223561 0)
(1.01549 -0.0246093 0)
(1.01586 -0.0268984 0)
(1.01619 -0.0292211 0)
(1.01644 -0.0315731 0)
(1.01662 -0.0339491 0)
(1.01671 -0.0363417 0)
(1.01668 -0.0387424 0)
(1.01654 -0.0411413 0)
(1.01627 -0.0435272 0)
(1.01585 -0.0458877 0)
(1.01528 -0.0482099 0)
(1.01456 -0.0504797 0)
(1.01367 -0.0526831 0)
(1.01262 -0.0548056 0)
(1.0114 -0.0568329 0)
(1.01003 -0.0587511 0)
(1.00849 -0.0605471 0)
(1.0068 -0.0622086 0)
(1.00497 -0.0637246 0)
(1.00301 -0.0650854 0)
(1.00092 -0.066283 0)
(0.998735 -0.0673113 0)
(0.996454 -0.0681659 0)
(0.994097 -0.0688443 0)
(0.991679 -0.069346 0)
(0.989218 -0.0696725 0)
(0.986728 -0.0698269 0)
(0.984226 -0.069814 0)
(0.981727 -0.0696403 0)
(0.979243 -0.0693133 0)
(0.976789 -0.0688422 0)
(0.974376 -0.0682365 0)
(0.972015 -0.0675069 0)
(0.969715 -0.0666638 0)
(0.967484 -0.0657183 0)
(0.965329 -0.0646813 0)
(0.963254 -0.0635642 0)
(0.961265 -0.0623784 0)
(0.959363 -0.0611356 0)
(0.957552 -0.0598475 0)
(0.955833 -0.0585247 0)
(0.954206 -0.057177 0)
(0.952669 -0.0558128 0)
(0.951216 -0.0544392 0)
(0.949842 -0.0530629 0)
(0.948542 -0.0516902 0)
(0.947315 -0.050327 0)
(0.946161 -0.0489787 0)
(0.945079 -0.0476498 0)
(0.944069 -0.0463445 0)
(0.943127 -0.0450661 0)
(0.94225 -0.0438175 0)
(0.941435 -0.0426011 0)
(0.940676 -0.0414189 0)
(0.939972 -0.0402725 0)
(0.939318 -0.0391632 0)
(0.93871 -0.0380922 0)
(0.938147 -0.0370604 0)
(1.01271 -0.00100952 0)
(1.01281 -0.00340457 0)
(1.013 -0.0054566 0)
(1.01327 -0.00766658 0)
(1.01361 -0.00978717 0)
(1.01401 -0.0119388 0)
(1.01445 -0.0141052 0)
(1.01493 -0.0162979 0)
(1.01543 -0.0185257 0)
(1.01594 -0.0207935 0)
(1.01645 -0.0231048 0)
(1.01693 -0.0254615 0)
(1.01739 -0.0278637 0)
(1.01779 -0.0303099 0)
(1.01813 -0.032797 0)
(1.0184 -0.0353202 0)
(1.01856 -0.0378729 0)
(1.01862 -0.0404472 0)
(1.01855 -0.0430333 0)
(1.01834 -0.0456204 0)
(1.01798 -0.048196 0)
(1.01746 -0.0507468 0)
(1.01677 -0.0532582 0)
(1.0159 -0.0557152 0)
(1.01486 -0.0581022 0)
(1.01363 -0.0604034 0)
(1.01221 -0.0626031 0)
(1.01062 -0.0646863 0)
(1.00885 -0.0666384 0)
(1.00692 -0.068446 0)
(1.00483 -0.0700969 0)
(1.00259 -0.0715806 0)
(1.00023 -0.0728882 0)
(0.997745 -0.0740127 0)
(0.995166 -0.0749494 0)
(0.992506 -0.0756953 0)
(0.989782 -0.0762496 0)
(0.987013 -0.0766137 0)
(0.984216 -0.0767909 0)
(0.981408 -0.0767863 0)
(0.978606 -0.0766069 0)
(0.975825 -0.0762609 0)
(0.97308 -0.0757579 0)
(0.970383 -0.0751087 0)
(0.967747 -0.074325 0)
(0.96518 -0.0734192 0)
(0.962692 -0.0724042 0)
(0.960289 -0.0712929 0)
(0.957977 -0.0700977 0)
(0.955758 -0.06883 0)
(0.953636 -0.0675007 0)
(0.951611 -0.06612 0)
(0.949682 -0.0646983 0)
(0.947851 -0.0632458 0)
(0.946119 -0.0617728 0)
(0.94449 -0.0602888 0)
(0.942962 -0.0588023 0)
(0.941534 -0.0573205 0)
(0.940198 -0.0558497 0)
(0.938948 -0.0543955 0)
(0.937779 -0.0529631 0)
(0.936685 -0.0515569 0)
(0.935663 -0.0501806 0)
(0.934709 -0.0488375 0)
(0.933819 -0.0475303 0)
(0.932991 -0.0462611 0)
(0.932221 -0.0450318 0)
(0.931505 -0.0438437 0)
(0.93084 -0.0426982 0)
(1.01361 -0.0010366 0)
(1.01372 -0.00348736 0)
(1.01394 -0.00559162 0)
(1.01423 -0.00785836 0)
(1.01461 -0.0100339 0)
(1.01505 -0.0122453 0)
(1.01554 -0.0144746 0)
(1.01608 -0.0167346 0)
(1.01664 -0.019035 0)
(1.01722 -0.0213817 0)
(1.0178 -0.0237791 0)
(1.01837 -0.0262303 0)
(1.01891 -0.0287364 0)
(1.0194 -0.0312968 0)
(1.01983 -0.0339093 0)
(1.02018 -0.0365702 0)
(1.02044 -0.0392738 0)
(1.02058 -0.0420127 0)
(1.0206 -0.044778 0)
(1.02047 -0.047559 0)
(1.02018 -0.0503437 0)
(1.01973 -0.0531186 0)
(1.01909 -0.0558688 0)
(1.01826 -0.0585787 0)
(1.01724 -0.0612318 0)
(1.01601 -0.063811 0)
(1.01459 -0.0662993 0)
(1.01296 -0.0686797 0)
(1.01113 -0.0709354 0)
(1.00911 -0.0730508 0)
(1.00691 -0.0750111 0)
(1.00454 -0.0768032 0)
(1.00202 -0.0784152 0)
(0.99935 -0.0798376 0)
(0.996559 -0.0810624 0)
(0.993663 -0.0820842 0)
(0.99068 -0.0828997 0)
(0.987631 -0.0835079 0)
(0.984535 -0.0839101 0)
(0.981411 -0.0841097 0)
(0.978279 -0.0841121 0)
(0.975156 -0.0839247 0)
(0.97206 -0.0835563 0)
(0.969006 -0.0830174 0)
(0.966009 -0.0823192 0)
(0.963082 -0.081474 0)
(0.960235 -0.0804943 0)
(0.957479 -0.0793932 0)
(0.95482 -0.0781842 0)
(0.952265 -0.0768815 0)
(0.949819 -0.0754997 0)
(0.947486 -0.0740533 0)
(0.945269 -0.0725556 0)
(0.943167 -0.0710187 0)
(0.941178 -0.0694531 0)
(0.939295 -0.0678682 0)
(0.937513 -0.0662728 0)
(0.935829 -0.0646754 0)
(0.934242 -0.0630841 0)
(0.932753 -0.0615058 0)
(0.93136 -0.0599467 0)
(0.930059 -0.0584123 0)
(0.928846 -0.0569071 0)
(0.927717 -0.0554351 0)
(0.926666 -0.0539996 0)
(0.925689 -0.0526033 0)
(0.924781 -0.0512487 0)
(0.923938 -0.0499376 0)
(0.923156 -0.0486719 0)
(1.01448 -0.00106127 0)