/*--------------------------------*- C++ -*----------------------------------*\
  =========                 |
  \\      /  F ield         | OpenFOAM: The Open Source CFD Toolbox
   \\    /   O peration     | Website:  https://openfoam.org
    \\  /    A nd           | Version:  10
     \\/     M anipulation  |
\*---------------------------------------------------------------------------*/
FoamFile
{
    format      ascii;
    class       volVectorField;
    location    "220";
    object      U;
}
// * * * * * * * * * * * * * * * * * * * * * * * * * * * * * * * * * * * * * //

dimensions      [0 1 -1 0 0 0 0];

internalField   nonuniform List<vector> 
66268
(
(1 -4.48016e-05 0)
(1 -0.000164494 0)
(1 -0.000262738 0)
(1 -0.000365899 0)
(1 -0.000467242 0)
(1 -0.000567524 0)
(1 -0.000667448 0)
(1 -0.000767122 0)
(1 -0.000866487 0)
(1 -0.000965423 0)
(1 -0.00106372 0)
(1 -0.00116107 0)
(1 -0.00125712 0)
(1 -0.00135145 0)
(1 -0.00144362 0)
(1 -0.00153315 0)
(1 -0.00161957 0)
(1 -0.00170241 0)
(1 -0.00178121 0)
(1 -0.00185557 0)
(1 -0.0019251 0)
(1 -0.00198947 0)
(1 -0.00204842 0)
(1 -0.00210173 0)
(1 -0.00214926 0)
(1 -0.00219092 0)
(1 -0.0022267 0)
(1 -0.00225663 0)
(1 -0.00228081 0)
(1 -0.0022994 0)
(1 -0.00231259 0)
(1 -0.00232061 0)
(1 -0.00232373 0)
(1 -0.00232223 0)
(1 -0.00231642 0)
(1 -0.00230661 0)
(1 -0.00229314 0)
(1 -0.00227631 0)
(1 -0.00225646 0)
(1 -0.00223389 0)
(1 -0.00220888 0)
(1 -0.00218171 0)
(1 -0.00215265 0)
(1 -0.00212192 0)
(1 -0.00208978 0)
(1 -0.00205645 0)
(1 -0.00202216 0)
(1 -0.00198716 0)
(0.999998 -0.0019517 0)
(0.999995 -0.00191604 0)
(0.999991 -0.00188045 0)
(0.999985 -0.00184521 0)
(0.999978 -0.00181055 0)
(0.999971 -0.00177664 0)
(0.999964 -0.00174359 0)
(0.99996 -0.00171141 0)
(0.999957 -0.00168011 0)
(0.999955 -0.00164965 0)
(0.999956 -0.00162001 0)
(0.999957 -0.00159117 0)
(0.99996 -0.00156314 0)
(0.999963 -0.00153594 0)
(0.999966 -0.00150959 0)
(0.999969 -0.00148412 0)
(0.999972 -0.00145957 0)
(0.999974 -0.00143593 0)
(0.999976 -0.00141322 0)
(0.999978 -0.00139147 0)
(0.999979 -0.00137072 0)
(1.0002 -0.000131174 0)
(1.00019 -0.000473965 0)
(1.0002 -0.000754417 0)
(1.0002 -0.00105196 0)
(1.00021 -0.00134261 0)
(1.00022 -0.00162963 0)
(1.00022 -0.00191535 0)
(1.00023 -0.0021998 0)
(1.00024 -0.00248283 0)
(1.00025 -0.00276409 0)
(1.00025 -0.00304296 0)
(1.00026 -0.00331861 0)
(1.00027 -0.00358999 0)
(1.00027 -0.00385595 0)
(1.00027 -0.00411521 0)
(1.00028 -0.00436646 0)
(1.00028 -0.00460834 0)
(1.00027 -0.00483954 0)
(1.00027 -0.0050588 0)
(1.00026 -0.00526495 0)
(1.00025 -0.00545694 0)
(1.00024 -0.00563385 0)
(1.00023 -0.00579495 0)
(1.00022 -0.00593965 0)
(1.0002 -0.00606758 0)
(1.00018 -0.0061785 0)
(1.00016 -0.00627241 0)
(1.00014 -0.00634943 0)
(1.00011 -0.00640988 0)
(1.00009 -0.00645425 0)
(1.00006 -0.00648315 0)
(1.00003 -0.00649725 0)
(1.00001 -0.00649731 0)
(0.999977 -0.00648416 0)
(0.999948 -0.0064587 0)
(0.999919 -0.00642185 0)
(0.99989 -0.00637458 0)
(0.999861 -0.00631786 0)
(0.999832 -0.00625265 0)
(0.999803 -0.00617992 0)
(0.999774 -0.00610064 0)
(0.999746 -0.00601576 0)
(0.999718 -0.00592619 0)
(0.999691 -0.00583283 0)
(0.999665 -0.00573649 0)
(0.999639 -0.00563793 0)
(0.999614 -0.00553783 0)
(0.999591 -0.00543676 0)
(0.99957 -0.0053352 0)
(0.999552 -0.00523352 0)
(0.999537 -0.00513199 0)
(0.999525 -0.00503079 0)
(0.999516 -0.00493009 0)
(0.999508 -0.0048301 0)
(0.9995 -0.00473108 0)
(0.999491 -0.00463333 0)
(0.99948 -0.00453721 0)
(0.999466 -0.00444305 0)
(0.999451 -0.00435111 0)
(0.999435 -0.00426162 0)
(0.999418 -0.0041747 0)
(0.999402 -0.00409044 0)
(0.999386 -0.00400889 0)
(0.999371 -0.00393007 0)
(0.999357 -0.00385397 0)
(0.999344 -0.00378059 0)
(0.999333 -0.0037099 0)
(0.999322 -0.00364191 0)
(0.999312 -0.00357669 0)
(1.00057 -0.000211741 0)
(1.00057 -0.000754207 0)
(1.00059 -0.00119758 0)
(1.0006 -0.00167228 0)
(1.00061 -0.002133 0)
(1.00063 -0.00258767 0)
(1.00065 -0.00303987 0)
(1.00067 -0.00348937 0)
(1.00069 -0.00393605 0)
(1.00071 -0.00437938 0)
(1.00073 -0.00481842 0)
(1.00075 -0.00525187 0)
(1.00076 -0.00567815 0)
(1.00077 -0.00609546 0)
(1.00078 -0.00650185 0)
(1.00078 -0.00689525 0)
(1.00078 -0.0072736 0)
(1.00077 -0.00763482 0)
(1.00075 -0.00797693 0)
(1.00073 -0.00829811 0)
(1.00071 -0.00859669 0)
(1.00067 -0.00887122 0)
(1.00063 -0.00912053 0)
(1.00059 -0.00934368 0)
(1.00053 -0.00954005 0)
(1.00048 -0.00970927 0)
(1.00041 -0.00985129 0)
(1.00035 -0.00996632 0)
(1.00028 -0.0100548 0)
(1.0002 -0.0101176 0)
(1.00013 -0.0101555 0)
(1.00005 -0.0101697 0)
(0.999965 -0.0101613 0)
(0.999883 -0.0101318 0)
(0.9998 -0.0100826 0)
(0.999717 -0.0100153 0)
(0.999635 -0.00993129 0)
(0.999553 -0.00983229 0)
(0.999473 -0.00971985 0)
(0.999394 -0.00959549 0)
(0.999317 -0.0094607 0)
(0.999242 -0.00931686 0)
(0.99917 -0.00916528 0)
(0.9991 -0.00900714 0)
(0.999033 -0.00884357 0)
(0.998968 -0.00867561 0)
(0.998906 -0.00850425 0)
(0.998846 -0.00833043 0)
(0.998787 -0.00815509 0)
(0.99873 -0.00797913 0)
(0.998673 -0.00780345 0)
(0.998616 -0.00762895 0)
(0.998561 -0.0074564 0)
(0.998507 -0.00728648 0)
(0.998456 -0.00711966 0)
(0.998411 -0.00695626 0)
(0.998371 -0.00679649 0)
(0.998336 -0.00664048 0)
(0.998307 -0.00648832 0)
(0.998281 -0.00634015 0)
(0.998259 -0.00619611 0)
(0.998239 -0.00605632 0)
(0.99822 -0.00592092 0)
(0.998203 -0.00579004 0)
(0.998186 -0.00566375 0)
(0.99817 -0.00554211 0)
(0.998155 -0.00542514 0)
(0.99814 -0.00531288 0)
(0.998126 -0.00520533 0)
(1.00107 -0.000284152 0)
(1.00108 -0.00100272 0)
(1.0011 -0.00159176 0)
(1.00112 -0.00222482 0)
(1.00115 -0.00283587 0)
(1.00118 -0.00343907 0)
(1.00121 -0.00403833 0)
(1.00125 -0.00463333 0)
(1.00129 -0.00522401 0)
(1.00132 -0.00580979 0)
(1.00135 -0.00638949 0)
(1.00138 -0.0069615 0)
(1.00141 -0.00752382 0)
(1.00142 -0.00807416 0)
(1.00143 -0.00861001 0)
(1.00143 -0.00912873 0)
(1.00143 -0.0096276 0)
(1.00141 -0.0101039 0)
(1.00138 -0.0105551 0)
(1.00133 -0.0109786 0)
(1.00128 -0.0113723 0)
(1.00122 -0.0117342 0)
(1.00114 -0.0120626 0)
(1.00105 -0.0123563 0)
(1.00095 -0.0126143 0)
(1.00085 -0.012836 0)
(1.00073 -0.0130212 0)
(1.0006 -0.0131702 0)
(1.00047 -0.0132836 0)
(1.00033 -0.0133621 0)
(1.00019 -0.0134069 0)
(1.00004 -0.0134195 0)
(0.999888 -0.0134014 0)
(0.999736 -0.0133545 0)
(0.999582 -0.0132806 0)
(0.999428 -0.0131816 0)
(0.999276 -0.0130597 0)
(0.999125 -0.0129169 0)
(0.998976 -0.0127554 0)
(0.998831 -0.012577 0)
(0.998688 -0.012384 0)
(0.99855 -0.0121782 0)
(0.998416 -0.0119616 0)
(0.998286 -0.0117361 0)
(0.998161 -0.0115034 0)
(0.998041 -0.0112654 0)
(0.997926 -0.0110236 0)
(0.997817 -0.0107794 0)
(0.997714 -0.010534 0)
(0.997618 -0.0102886 0)
(0.997531 -0.0100441 0)
(0.997451 -0.00980098 0)
(0.997379 -0.00956 0)
(0.997312 -0.00932168 0)
(0.997249 -0.00908664 0)
(0.997186 -0.00885554 0)
(0.997123 -0.00862908 0)
(0.997059 -0.00840787 0)
(0.996994 -0.00819244 0)
(0.996931 -0.00798317 0)
(0.996869 -0.00778032 0)
(0.99681 -0.00758404 0)
(0.996754 -0.00739439 0)
(0.996702 -0.0072114 0)
(0.996653 -0.00703506 0)
(0.996608 -0.00686532 0)
(0.996566 -0.00670213 0)
(0.996528 -0.00654546 0)
(0.996492 -0.00639531 0)
(1.00165 -0.00034643 0)
(1.00166 -0.00121648 0)
(1.0017 -0.00193366 0)
(1.00173 -0.00270416 0)
(1.00177 -0.00344474 0)
(1.00182 -0.00417639 0)
(1.00187 -0.00490252 0)
(1.00192 -0.00562292 0)
(1.00197 -0.00633768 0)
(1.00203 -0.00704629 0)
(1.00208 -0.00774747 0)
(1.00212 -0.00843941 0)
(1.00216 -0.00911985 0)
(1.00218 -0.00978618 0)
(1.0022 -0.0104355 0)
(1.0022 -0.0110647 0)
(1.00218 -0.0116705 0)
(1.00216 -0.0122497 0)
(1.00211 -0.0127991 0)
(1.00205 -0.0133158 0)
(1.00196 -0.0137968 0)
(1.00186 -0.0142398 0)
(1.00175 -0.0146426 0)
(1.00161 -0.0150034 0)
(1.00146 -0.0153209 0)
(1.00129 -0.0155942 0)
(1.00111 -0.015823 0)
(1.00092 -0.0160072 0)
(1.00071 -0.0161475 0)
(1.00049 -0.0162445 0)
(1.00027 -0.0162997 0)
(1.00003 -0.0163145 0)
(0.999798 -0.0162909 0)
(0.999559 -0.016231 0)
(0.999317 -0.016137 0)
(0.999075 -0.0160115 0)
(0.998835 -0.0158569 0)
(0.998596 -0.015676 0)
(0.998361 -0.0154714 0)
(0.99813 -0.0152458 0)
(0.997904 -0.0150016 0)
(0.997684 -0.0147416 0)
(0.99747 -0.0144679 0)
(0.997263 -0.014183 0)
(0.997064 -0.0138887 0)
(0.996872 -0.013587 0)
(0.996687 -0.0132798 0)
(0.99651 -0.0129685 0)
(0.996339 -0.0126549 0)
(0.996173 -0.0123404 0)
(0.996011 -0.0120264 0)
(0.995853 -0.0117144 0)
(0.9957 -0.0114058 0)
(0.995552 -0.0111016 0)
(0.995413 -0.0108027 0)
(0.995284 -0.0105098 0)
(0.995168 -0.0102231 0)
(0.995063 -0.009943 0)
(0.994969 -0.00966969 0)
(0.994885 -0.00940342 0)
(0.994807 -0.00914446 0)
(0.994736 -0.00889308 0)
(0.994669 -0.00864951 0)
(0.994605 -0.00841398 0)
(0.994546 -0.00818662 0)
(0.994489 -0.00796754 0)
(0.994435 -0.00775678 0)
(0.994384 -0.00755439 0)
(0.994336 -0.00736037 0)
(1.00228 -0.000399194 0)
(1.0023 -0.00139798 0)
(1.00234 -0.00222622 0)
(1.00238 -0.00311418 0)
(1.00244 -0.00396518 0)
(1.00251 -0.00480681 0)
(1.00258 -0.00564158 0)
(1.00265 -0.00646944 0)
(1.00272 -0.00729085 0)
(1.0028 -0.00810545 0)
(1.00287 -0.00891195 0)
(1.00293 -0.00970851 0)
(1.00298 -0.0104928 0)
(1.00301 -0.011262 0)
(1.00304 -0.0120129 0)
(1.00304 -0.0127421 0)
(1.00302 -0.013446 0)
(1.00299 -0.0141209 0)
(1.00293 -0.0147631 0)
(1.00284 -0.0153692 0)
(1.00273 -0.0159357 0)
(1.0026 -0.0164595 0)
(1.00243 -0.0169381 0)
(1.00225 -0.0173691 0)
(1.00204 -0.0177507 0)
(1.00181 -0.0180816 0)
(1.00155 -0.018361 0)
(1.00128 -0.0185886 0)
(1.00099 -0.0187647 0)
(1.00068 -0.01889 0)
(1.00037 -0.0189658 0)
(1.00004 -0.0189935 0)
(0.999701 -0.0189753 0)
(0.99936 -0.0189133 0)
(0.999015 -0.0188103 0)
(0.998668 -0.0186688 0)
(0.998323 -0.0184918 0)
(0.99798 -0.0182823 0)
(0.997641 -0.0180432 0)
(0.997308 -0.0177776 0)
(0.996981 -0.0174885 0)
(0.996662 -0.0171787 0)
(0.996353 -0.0168512 0)
(0.996052 -0.0165088 0)
(0.995762 -0.0161543 0)
(0.995483 -0.0157901 0)
(0.995214 -0.0154189 0)
(0.994958 -0.0150429 0)
(0.994715 -0.0146641 0)
(0.994486 -0.0142843 0)
(0.994272 -0.0139052 0)
(0.994075 -0.0135279 0)
(0.993892 -0.0131535 0)
(0.993722 -0.0127829 0)
(0.99356 -0.0124172 0)
(0.993404 -0.0120573 0)
(0.993251 -0.0117042 0)
(0.993101 -0.0113591 0)
(0.992954 -0.0110226 0)
(0.992811 -0.0106954 0)
(0.992674 -0.0103779 0)
(0.992545 -0.0100704 0)
(0.992423 -0.009773 0)
(0.992309 -0.00948581 0)
(0.992203 -0.00920885 0)
(0.992105 -0.00894209 0)
(0.992014 -0.00868551 0)
(0.991929 -0.00843906 0)
(0.991851 -0.00820274 0)
(1.00294 -0.000445674 0)
(1.00297 -0.00155666 0)
(1.00301 -0.00248224 0)
(1.00307 -0.00347299 0)
(1.00314 -0.0044208 0)
(1.00323 -0.00535933 0)
(1.00332 -0.00629008 0)
(1.00342 -0.00721329 0)
(1.00351 -0.00812992 0)
(1.00361 -0.00903982 0)
(1.0037 -0.00994184 0)
(1.00378 -0.0108342 0)
(1.00385 -0.0117147 0)
(1.0039 -0.0125804 0)
(1.00394 -0.013428 0)
(1.00395 -0.0142539 0)
(1.00393 -0.0150543 0)
(1.00389 -0.0158249 0)
(1.00382 -0.0165619 0)
(1.00371 -0.0172611 0)
(1.00358 -0.0179186 0)
(1.00341 -0.0185307 0)
(1.0032 -0.0190942 0)
(1.00296 -0.0196061 0)
(1.00269 -0.020064 0)
(1.00239 -0.020466 0)
(1.00206 -0.0208106 0)
(1.00171 -0.0210973 0)
(1.00133 -0.0213256 0)
(1.00093 -0.0214961 0)
(1.00051 -0.0216097 0)
(1.00007 -0.0216678 0)
(0.999625 -0.0216723 0)
(0.99917 -0.0216255 0)
(0.998709 -0.0215301 0)
(0.998244 -0.0213889 0)
(0.99778 -0.0212052 0)
(0.997318 -0.0209823 0)
(0.996861 -0.0207236 0)
(0.99641 -0.0204328 0)
(0.995968 -0.0201134 0)
(0.995537 -0.0197688 0)
(0.995117 -0.0194025 0)
(0.994709 -0.0190176 0)
(0.994316 -0.0186172 0)
(0.993936 -0.018204 0)
(0.993572 -0.0177807 0)
(0.993222 -0.0173496 0)
(0.992886 -0.016913 0)
(0.992562 -0.016473 0)
(0.992249 -0.0160318 0)
(0.991945 -0.0155914 0)
(0.991652 -0.0151538 0)
(0.99137 -0.0147208 0)
(0.991104 -0.0142939 0)
(0.990857 -0.0138741 0)
(0.99063 -0.0134624 0)
(0.990424 -0.0130591 0)
(0.990235 -0.012665 0)
(0.990063 -0.0122805 0)
(0.989904 -0.0119061 0)
(0.989755 -0.0115423 0)
(0.989616 -0.0111894 0)
(0.989484 -0.0108479 0)
(0.98936 -0.010518 0)
(0.989242 -0.0101999 0)
(0.989131 -0.00989361 0)
(0.989026 -0.00959929 0)
(0.988927 -0.00931693 0)
(1.00364 -0.000489714 0)
(1.00367 -0.00170421 0)
(1.00372 -0.0027189 0)
(1.00379 -0.00380493 0)
(1.00388 -0.00484289 0)
(1.00399 -0.00587203 0)
(1.0041 -0.006893 0)
(1.00422 -0.00790646 0)
(1.00435 -0.00891393 0)
(1.00447 -0.00991556 0)
(1.00458 -0.0109104 0)
(1.00469 -0.0118971 0)
(1.00478 -0.0128733 0)
(1.00485 -0.0138363 0)
(1.0049 -0.0147829 0)
(1.00493 -0.0157093 0)
(1.00492 -0.0166115 0)
(1.00488 -0.0174851 0)
(1.0048 -0.0183256 0)
(1.00468 -0.0191286 0)
(1.00452 -0.0198895 0)
(1.00432 -0.020604 0)
(1.00407 -0.0212682 0)
(1.00379 -0.0218784 0)
(1.00346 -0.0224314 0)
(1.00309 -0.0229245 0)
(1.00268 -0.0233555 0)
(1.00224 -0.0237231 0)
(1.00177 -0.0240262 0)
(1.00127 -0.0242648 0)
(1.00074 -0.0244393 0)
(1.00019 -0.0245506 0)
(0.999621 -0.0246004 0)
(0.999042 -0.0245908 0)
(0.998453 -0.0245242 0)
(0.997859 -0.0244037 0)
(0.997264 -0.0242324 0)
(0.996669 -0.0240139 0)
(0.99608 -0.0237518 0)
(0.995498 -0.0234498 0)
(0.994927 -0.0231117 0)
(0.994367 -0.0227412 0)
(0.993822 -0.0223422 0)
(0.993292 -0.0219182 0)
(0.992778 -0.0214732 0)
(0.992283 -0.0210107 0)
(0.991806 -0.0205342 0)
(0.991349 -0.0200473 0)
(0.990912 -0.0195531 0)
(0.990498 -0.0190544 0)
(0.990108 -0.0185538 0)
(0.989743 -0.0180535 0)
(0.989403 -0.0175553 0)
(0.989084 -0.0170605 0)
(0.988783 -0.0165708 0)
(0.988493 -0.0160874 0)
(0.988212 -0.0156119 0)
(0.987939 -0.0151456 0)
(0.987674 -0.0146897 0)
(0.987419 -0.0142451 0)
(0.987177 -0.0138125 0)
(0.986949 -0.0133924 0)
(0.986734 -0.0129852 0)
(0.986534 -0.012591 0)
(0.986348 -0.0122102 0)
(0.986175 -0.0118427 0)
(0.986014 -0.0114886 0)
(0.985864 -0.0111479 0)
(0.985725 -0.0108208 0)
(1.00437 -0.000533843 0)
(1.0044 -0.00184932 0)
(1.00447 -0.00295046 0)
(1.00455 -0.00413013 0)
(1.00466 -0.00525696 0)
(1.00479 -0.00637588 0)
(1.00493 -0.00748675 0)
(1.00507 -0.00859073 0)
(1.00522 -0.00969 0)
(1.00537 -0.0107851 0)
(1.00552 -0.0118753 0)
(1.00565 -0.0129597 0)
(1.00577 -0.0140362 0)
(1.00587 -0.0151023 0)
(1.00594 -0.0161549 0)
(1.00598 -0.0171901 0)
(1.00598 -0.0182039 0)
(1.00595 -0.0191917 0)
(1.00587 -0.0201488 0)
(1.00574 -0.0210701 0)
(1.00557 -0.0219507 0)
(1.00534 -0.0227855 0)
(1.00506 -0.0235699 0)
(1.00473 -0.0242994 0)
(1.00435 -0.0249698 0)
(1.00392 -0.0255775 0)
(1.00343 -0.0261194 0)
(1.00291 -0.0265932 0)
(1.00234 -0.0269971 0)
(1.00173 -0.0273301 0)
(1.00109 -0.0275917 0)
(1.00042 -0.0277825 0)
(0.999731 -0.0279034 0)
(0.99902 -0.0279562 0)
(0.998295 -0.027943 0)
(0.99756 -0.0278668 0)
(0.996821 -0.0277306 0)
(0.996082 -0.0275382 0)
(0.995346 -0.0272935 0)
(0.994618 -0.0270007 0)
(0.9939 -0.0266641 0)
(0.993196 -0.0262883 0)
(0.992507 -0.0258778 0)
(0.991837 -0.0254369 0)
(0.991187 -0.0249698 0)
(0.990559 -0.0244805 0)
(0.989953 -0.0239725 0)
(0.98937 -0.0234493 0)
(0.98881 -0.022914 0)
(0.988271 -0.0223694 0)
(0.987753 -0.0218184 0)
(0.987253 -0.0212638 0)
(0.986771 -0.0207082 0)
(0.986309 -0.0201544 0)
(0.985871 -0.0196048 0)
(0.985461 -0.0190613 0)
(0.985081 -0.0185256 0)
(0.984732 -0.0179987 0)
(0.984411 -0.0174819 0)
(0.984115 -0.0169761 0)
(0.983839 -0.0164822 0)
(0.98358 -0.016001 0)
(0.983337 -0.0155333 0)
(0.983108 -0.0150796 0)
(0.982891 -0.0146405 0)
(0.982686 -0.0142163 0)
(0.982493 -0.0138072 0)
(0.982312 -0.0134134 0)
(0.982141 -0.013035 0)
(1.00513 -0.000578907 0)
(1.00516 -0.00199598 0)
(1.00524 -0.00318451 0)
(1.00534 -0.00445912 0)
(1.00547 -0.00567615 0)
(1.00562 -0.00688672 0)
(1.00578 -0.00808975 0)
(1.00596 -0.00928697 0)
(1.00614 -0.0104813 0)
(1.00632 -0.0116736 0)
(1.0065 -0.0128638 0)
(1.00666 -0.0140511 0)
(1.00681 -0.0152341 0)
(1.00694 -0.0164103 0)
(1.00704 -0.0175769 0)
(1.0071 -0.0187302 0)
(1.00712 -0.0198661 0)
(1.0071 -0.0209799 0)
(1.00703 -0.0220666 0)
(1.00691 -0.023121 0)
(1.00672 -0.0241374 0)
(1.00648 -0.0251102 0)
(1.00617 -0.026034 0)
(1.0058 -0.0269034 0)
(1.00537 -0.0277133 0)
(1.00488 -0.0284589 0)
(1.00433 -0.0291363 0)
(1.00372 -0.0297419 0)
(1.00306 -0.0302727 0)
(1.00235 -0.0307268 0)
(1.0016 -0.0311029 0)
(1.00081 -0.0314004 0)
(0.999991 -0.0316196 0)
(0.999143 -0.0317616 0)
(0.998274 -0.0318282 0)
(0.99739 -0.0318217 0)
(0.996498 -0.0317452 0)
(0.995601 -0.0316023 0)
(0.994706 -0.0313968 0)
(0.993818 -0.0311329 0)
(0.992939 -0.030815 0)
(0.992075 -0.0304477 0)
(0.991229 -0.0300355 0)
(0.990404 -0.0295831 0)
(0.989601 -0.0290951 0)
(0.988823 -0.0285761 0)
(0.988073 -0.0280311 0)
(0.98735 -0.0274645 0)
(0.986656 -0.0268811 0)
(0.985995 -0.0262852 0)
(0.985367 -0.0256807 0)
(0.984774 -0.0250712 0)
(0.984217 -0.0244595 0)
(0.983693 -0.0238483 0)
(0.983197 -0.0232396 0)
(0.982723 -0.0226355 0)
(0.982266 -0.022038 0)
(0.981825 -0.0214491 0)
(0.9814 -0.0208705 0)
(0.980994 -0.0203037 0)
(0.980608 -0.0197498 0)
(0.980244 -0.0192099 0)
(0.979904 -0.0186846 0)
(0.979585 -0.0181745 0)
(0.979288 -0.0176801 0)
(0.979011 -0.0172018 0)
(0.978753 -0.0167398 0)
(0.978513 -0.0162944 0)
(0.978289 -0.0158658 0)
(1.0059 -0.000624684 0)
(1.00594 -0.00214429 0)
(1.00603 -0.00342197 0)
(1.00615 -0.004793 0)
(1.00629 -0.00610163 0)
(1.00647 -0.00740575 0)
(1.00666 -0.00870307 0)
(1.00686 -0.00999596 0)
(1.00708 -0.0112881 0)
(1.00729 -0.0125808 0)
(1.00751 -0.0138745 0)
(1.00771 -0.015169 0)
(1.0079 -0.016463 0)
(1.00806 -0.0177547 0)
(1.00819 -0.0190414 0)
(1.00828 -0.0203197 0)
(1.00833 -0.0215856 0)
(1.00834 -0.0228345 0)
(1.00828 -0.0240612 0)
(1.00817 -0.02526 0)
(1.00798 -0.0264252 0)
(1.00774 -0.0275505 0)
(1.00741 -0.0286296 0)
(1.00702 -0.0296564 0)
(1.00655 -0.0306247 0)
(1.00601 -0.0315289 0)
(1.0054 -0.0323636 0)
(1.00472 -0.0331241 0)
(1.00397 -0.0338063 0)
(1.00317 -0.0344069 0)
(1.0023 -0.0349235 0)
(1.00139 -0.0353543 0)
(1.00044 -0.0356986 0)
(0.999452 -0.0359567 0)
(0.998434 -0.0361294 0)
(0.997394 -0.0362187 0)
(0.996338 -0.036227 0)
(0.995274 -0.0361577 0)
(0.994207 -0.0360145 0)
(0.993144 -0.0358017 0)
(0.992089 -0.0355242 0)
(0.991048 -0.0351871 0)
(0.990025 -0.0347958 0)
(0.989024 -0.034356 0)
(0.988048 -0.033873 0)
(0.987099 -0.0333523 0)
(0.986181 -0.0327989 0)
(0.985295 -0.0322174 0)
(0.984442 -0.0316122 0)
(0.983621 -0.0309872 0)
(0.982832 -0.0303463 0)
(0.982072 -0.0296932 0)
(0.98134 -0.0290316 0)
(0.980639 -0.0283654 0)
(0.979971 -0.027698 0)
(0.979342 -0.0270329 0)
(0.978756 -0.0263727 0)
(0.978211 -0.0257196 0)
(0.977706 -0.0250755 0)
(0.977237 -0.0244422 0)
(0.976798 -0.0238211 0)
(0.976385 -0.0232137 0)
(0.975997 -0.0226212 0)
(0.97563 -0.0220446 0)
(0.975284 -0.0214848 0)
(0.974958 -0.0209424 0)
(0.97465 -0.020418 0)
(0.974361 -0.019912 0)
(0.97409 -0.0194247 0)
(1.00669 -0.000670477 0)
(1.00673 -0.00229209 0)
(1.00684 -0.00365936 0)
(1.00697 -0.00512681 0)
(1.00714 -0.00652696 0)
(1.00734 -0.00792491 0)
(1.00756 -0.0093168 0)
(1.00779 -0.0107058 0)
(1.00804 -0.0120964 0)
(1.0083 -0.0134903 0)
(1.00855 -0.0148885 0)
(1.00879 -0.0162912 0)
(1.00902 -0.0176979 0)
(1.00922 -0.019107 0)
(1.0094 -0.0205163 0)
(1.00953 -0.0219227 0)
(1.00962 -0.0233225 0)
(1.00965 -0.0247111 0)
(1.00962 -0.0260834 0)
(1.00953 -0.0274337 0)
(1.00936 -0.0287558 0)
(1.00912 -0.0300431 0)
(1.0088 -0.0312887 0)
(1.00839 -0.0324858 0)
(1.00789 -0.0336272 0)
(1.00732 -0.0347062 0)
(1.00665 -0.0357162 0)
(1.00591 -0.0366514 0)
(1.00509 -0.0375062 0)
(1.00419 -0.0382759 0)
(1.00322 -0.0389566 0)
(1.00219 -0.0395454 0)
(1.00111 -0.0400403 0)
(0.99998 -0.0404401 0)
(0.99881 -0.040745 0)
(0.997607 -0.0409558 0)
(0.996381 -0.0410744 0)
(0.995139 -0.0411035 0)
(0.993889 -0.0410465 0)
(0.992638 -0.0409076 0)
(0.991393 -0.0406913 0)
(0.990159 -0.0404027 0)
(0.988944 -0.0400469 0)
(0.987751 -0.0396294 0)
(0.986585 -0.0391558 0)
(0.985451 -0.0386317 0)
(0.98435 -0.038063 0)
(0.983286 -0.0374557 0)
(0.982261 -0.0368161 0)
(0.981276 -0.0361501 0)
(0.980336 -0.0354635 0)
(0.979442 -0.0347616 0)
(0.978596 -0.0340491 0)
(0.977796 -0.0333299 0)
(0.977038 -0.0326072 0)
(0.976315 -0.0318842 0)
(0.975622 -0.0311636 0)
(0.974955 -0.0304483 0)
(0.974316 -0.029741 0)
(0.973705 -0.0290441 0)
(0.973127 -0.0283595 0)
(0.972581 -0.0276888 0)
(0.972068 -0.0270335 0)
(0.971589 -0.0263946 0)
(0.97114 -0.0257732 0)
(0.970721 -0.02517 0)
(0.97033 -0.0245856 0)
(0.969964 -0.0240207 0)
(0.969622 -0.0234758 0)
(1.00748 -0.000715467 0)
(1.00754 -0.00243654 0)
(1.00765 -0.00389182 0)
(1.0078 -0.00545362 0)
(1.00799 -0.00694322 0)
(1.00822 -0.00843308 0)
(1.00847 -0.00991756 0)
(1.00874 -0.0114007 0)
(1.00903 -0.0128876 0)
(1.00932 -0.0143807 0)
(1.00962 -0.0158813 0)
(1.00991 -0.0173904 0)
(1.01018 -0.0189079 0)
(1.01043 -0.0204327 0)
(1.01065 -0.0219631 0)
(1.01083 -0.0234965 0)
(1.01096 -0.0250296 0)
(1.01104 -0.026558 0)
(1.01105 -0.0280768 0)
(1.01099 -0.0295805 0)
(1.01085 -0.0310627 0)
(1.01062 -0.0325165 0)
(1.01031 -0.0339348 0)
(1.0099 -0.0353098 0)
(1.00939 -0.0366339 0)
(1.00879 -0.0378993 0)
(1.00809 -0.0390982 0)
(1.00729 -0.0402234 0)
(1.0064 -0.0412681 0)
(1.00543 -0.042226 0)
(1.00436 -0.0430917 0)
(1.00322 -0.0438606 0)
(1.00202 -0.0445294 0)
(1.00075 -0.0450954 0)
(0.999423 -0.0455573 0)
(0.998056 -0.0459148 0)
(0.996655 -0.0461688 0)
(0.995228 -0.0463211 0)
(0.993786 -0.0463745 0)
(0.992336 -0.0463326 0)
(0.990886 -0.0461999 0)
(0.989445 -0.0459817 0)
(0.988019 -0.0456836 0)
(0.986614 -0.0453121 0)
(0.985237 -0.0448738 0)
(0.983891 -0.0443756 0)
(0.982582 -0.0438239 0)
(0.981312 -0.0432253 0)
(0.980084 -0.0425855 0)
(0.9789 -0.04191 0)
(0.977759 -0.041204 0)
(0.976661 -0.0404723 0)
(0.975604 -0.03972 0)
(0.974589 -0.0389522 0)
(0.97362 -0.0381741 0)
(0.972701 -0.0373907 0)
(0.971838 -0.0366061 0)
(0.971031 -0.035824 0)
(0.970278 -0.0350474 0)
(0.969574 -0.034279 0)
(0.968913 -0.0335212 0)
(0.968292 -0.0327764 0)
(0.967706 -0.0320465 0)
(0.967152 -0.0313332 0)
(0.96663 -0.0306381 0)
(0.966138 -0.0299623 0)
(0.965675 -0.0293067 0)
(0.965239 -0.0286723 0)
(0.96483 -0.0280597 0)
(1.00829 -0.000758923 0)
(1.00835 -0.00257511 0)
(1.00847 -0.00411502 0)
(1.00864 -0.00576732 0)
(1.00886 -0.00734255 0)
(1.00911 -0.00892054 0)
(1.00939 -0.0104936 0)
(1.0097 -0.0120668 0)
(1.01003 -0.0136459 0)
(1.01036 -0.0152336 0)
(1.01071 -0.0168322 0)
(1.01104 -0.0184429 0)
(1.01137 -0.0200662 0)
(1.01167 -0.0217019 0)
(1.01194 -0.0233486 0)
(1.01217 -0.0250043 0)
(1.01236 -0.0266661 0)
(1.01248 -0.0283304 0)
(1.01254 -0.0299924 0)
(1.01252 -0.0316469 0)
(1.01242 -0.0332876 0)
(1.01223 -0.0349078 0)
(1.01193 -0.0364998 0)
(1.01154 -0.0380558 0)
(1.01104 -0.0395672 0)
(1.01043 -0.0410256 0)
(1.0097 -0.0424223 0)
(1.00887 -0.0437487 0)
(1.00793 -0.0449965 0)
(1.00688 -0.0461581 0)
(1.00573 -0.0472263 0)
(1.00449 -0.048195 0)
(1.00317 -0.0490589 0)
(1.00176 -0.0498137 0)
(1.00029 -0.0504566 0)
(0.998762 -0.0509857 0)
(0.997184 -0.0514005 0)
(0.995569 -0.0517016 0)
(0.993927 -0.0518909 0)
(0.992268 -0.0519715 0)
(0.990602 -0.0519471 0)
(0.988939 -0.0518225 0)
(0.987288 -0.0516032 0)
(0.985655 -0.051295 0)
(0.984049 -0.0509041 0)
(0.982477 -0.0504369 0)
(0.980942 -0.0499002 0)
(0.979451 -0.0493012 0)
(0.978007 -0.0486476 0)
(0.976614 -0.047947 0)
(0.975275 -0.0472074 0)
(0.973994 -0.0464362 0)
(0.972774 -0.0456402 0)
(0.971615 -0.0448253 0)
(0.970515 -0.0439966 0)
(0.969466 -0.0431584 0)
(0.968463 -0.0423148 0)
(0.9675 -0.04147 0)
(0.966578 -0.0406281 0)
(0.965698 -0.0397925 0)
(0.964863 -0.0389666 0)
(0.964075 -0.038153 0)
(0.963334 -0.0373539 0)
(0.962638 -0.0365714 0)
(0.961987 -0.0358071 0)
(0.961377 -0.0350624 0)
(0.960806 -0.0343385 0)
(0.960271 -0.0336365 0)
(0.959771 -0.0329574 0)
(1.00909 -0.000800308 0)
(1.00916 -0.00270607 0)
(1.0093 -0.004326 0)
(1.00948 -0.00606371 0)
(1.00972 -0.00771953 0)
(1.01 -0.00938055 0)
(1.01032 -0.0110369 0)
(1.01066 -0.0126946 0)
(1.01103 -0.01436 0)
(1.01141 -0.0160363 0)
(1.0118 -0.0177263 0)
(1.01219 -0.0194319 0)
(1.01257 -0.0211542 0)
(1.01293 -0.0228935 0)
(1.01326 -0.0246491 0)
(1.01355 -0.0264196 0)
(1.01379 -0.0282029 0)
(1.01397 -0.0299958 0)
(1.01409 -0.0317942 0)
(1.01412 -0.0335933 0)
(1.01407 -0.0353872 0)
(1.01392 -0.0371693 0)
(1.01366 -0.0389322 0)
(1.0133 -0.0406676 0)
(1.01281 -0.0423669 0)
(1.01221 -0.0440208 0)
(1.01148 -0.0456198 0)
(1.01062 -0.0471544 0)
(1.00965 -0.048615 0)
(1.00855 -0.0499924 0)
(1.00733 -0.0512778 0)
(1.006 -0.0524633 0)
(1.00457 -0.0535416 0)
(1.00304 -0.0545068 0)
(1.00143 -0.0553538 0)
(0.999741 -0.0560791 0)
(0.997989 -0.0566805 0)
(0.996184 -0.057157 0)
(0.994339 -0.0575091 0)
(0.992465 -0.0577386 0)
(0.990574 -0.0578485 0)
(0.988678 -0.0578428 0)
(0.986786 -0.0577268 0)
(0.984908 -0.0575066 0)
(0.983054 -0.0571893 0)
(0.98123 -0.0567825 0)
(0.979445 -0.0562945 0)
(0.977704 -0.0557331 0)
(0.976011 -0.0551063 0)
(0.974372 -0.0544213 0)
(0.972788 -0.0536847 0)
(0.971261 -0.0529032 0)
(0.969788 -0.0520831 0)
(0.968371 -0.0512313 0)
(0.967013 -0.0503548 0)
(0.965719 -0.0494605 0)
(0.964496 -0.0485547 0)
(0.963346 -0.0476429 0)
(0.962267 -0.0467297 0)
(0.961255 -0.0458191 0)
(0.960303 -0.044915 0)
(0.959406 -0.0440208 0)
(0.958559 -0.0431396 0)
(0.957759 -0.0422741 0)
(0.957004 -0.0414269 0)
(0.956293 -0.0405998 0)
(0.955623 -0.0397947 0)
(0.954993 -0.0390129 0)
(0.954402 -0.0382557 0)
(1.00989 -0.000839288 0)
(1.00997 -0.00282842 0)
(1.01012 -0.00452315 0)
(1.01032 -0.00634052 0)
(1.01058 -0.00807124 0)
(1.01089 -0.00980944 0)
(1.01124 -0.011543 0)
(1.01162 -0.0132787 0)
(1.01203 -0.0150238 0)
(1.01246 -0.0167816 0)
(1.0129 -0.0185556 0)
(1.01334 -0.0203483 0)
(1.01377 -0.0221613 0)
(1.01419 -0.0239954 0)
(1.01458 -0.0258509 0)
(1.01494 -0.0277271 0)
(1.01524 -0.0296225 0)
(1.01549 -0.0315347 0)
(1.01567 -0.0334603 0)
(1.01577 -0.0353951 0)
(1.01577 -0.0373339 0)
(1.01568 -0.0392706 0)
(1.01548 -0.0411979 0)
(1.01515 -0.0431079 0)
(1.0147 -0.0449918 0)
(1.01412 -0.0468401 0)
(1.0134 -0.0486426 0)
(1.01255 -0.0503889 0)
(1.01155 -0.0520685 0)
(1.01042 -0.0536707 0)
(1.00915 -0.0551852 0)
(1.00775 -0.0566021 0)
(1.00623 -0.0579124 0)
(1.00459 -0.0591079 0)
(1.00285 -0.0601816 0)
(1.00101 -0.0611277 0)
(0.999086 -0.0619418 0)
(0.997094 -0.0626212 0)
(0.995046 -0.0631644 0)
(0.992954 -0.0635718 0)
(0.990831 -0.063845 0)
(0.988691 -0.0639871 0)
(0.986547 -0.0640025 0)
(0.984409 -0.0638965 0)
(0.982289 -0.0636755 0)
(0.980198 -0.063346 0)
(0.978144 -0.0629155 0)
(0.976135 -0.0623919 0)
(0.974179 -0.0617837 0)
(0.972281 -0.0611003 0)
(0.970446 -0.0603513 0)
(0.968681 -0.0595467 0)
(0.966989 -0.0586959 0)
(0.965375 -0.0578076 0)
(0.963838 -0.0568889 0)
(0.962371 -0.0559463 0)
(0.960969 -0.0549854 0)
(0.959625 -0.0540124 0)
(0.958337 -0.0530329 0)
(0.957108 -0.0520524 0)
(0.95594 -0.0510758 0)
(0.954837 -0.0501073 0)
(0.953797 -0.0491504 0)
(0.952819 -0.0482084 0)
(0.951902 -0.0472838 0)
(0.951041 -0.046379 0)
(0.950234 -0.0454961 0)
(0.949479 -0.0446369 0)
(0.948771 -0.0438031 0)
(1.01069 -0.000875711 0)
(1.01077 -0.00294183 0)
(1.01093 -0.00470594 0)
(1.01115 -0.006597 0)
(1.01144 -0.00839669 0)
(1.01178 -0.010206 0)
(1.01216 -0.0120103 0)
(1.01258 -0.0138176 0)
(1.01303 -0.0156352 0)
(1.0135 -0.0174671 0)
(1.01399 -0.0193172 0)
(1.01449 -0.0211886 0)
(1.01498 -0.0230833 0)
(1.01546 -0.0250031 0)
(1.01591 -0.0269488 0)
(1.01633 -0.0289204 0)
(1.01671 -0.0309173 0)
(1.01702 -0.0329381 0)
(1.01727 -0.0349801 0)
(1.01744 -0.0370401 0)
(1.01752 -0.0391135 0)
(1.01749 -0.0411951 0)
(1.01735 -0.0432782 0)
(1.01709 -0.0453552 0)
(1.01669 -0.0474177 0)
(1.01615 -0.049456 0)
(1.01546 -0.0514599 0)
(1.01462 -0.0534184 0)
(1.01363 -0.05532 0)
(1.01248 -0.057153 0)
(1.01118 -0.0589056 0)
(1.00973 -0.0605664 0)
(1.00813 -0.0621241 0)
(1.0064 -0.0635686 0)
(1.00454 -0.0648903 0)
(1.00257 -0.0660814 0)
(1.00049 -0.0671348 0)
(0.998316 -0.0680456 0)
(0.996068 -0.0688102 0)
(0.993759 -0.0694266 0)
(0.991402 -0.0698948 0)
(0.989013 -0.0702163 0)
(0.986606 -0.0703941 0)
(0.984196 -0.0704328 0)
(0.981795 -0.0703385 0)
(0.979416 -0.0701184 0)
(0.97707 -0.0697813 0)
(0.974766 -0.0693362 0)
(0.972514 -0.0687927 0)
(0.97032 -0.06816 0)
(0.968191 -0.0674469 0)
(0.966129 -0.0666617 0)
(0.964137 -0.0658124 0)
(0.962215 -0.0649077 0)
(0.960366 -0.0639565 0)
(0.958596 -0.0629683 0)
(0.956913 -0.0619522 0)
(0.955323 -0.0609161 0)
(0.953826 -0.0598669 0)
(0.952418 -0.0588105 0)
(0.951091 -0.0577524 0)
(0.949838 -0.0566977 0)
(0.948654 -0.0556513 0)
(0.947536 -0.0546175 0)
(0.946481 -0.0536 0)
(0.945485 -0.0526021 0)
(0.944548 -0.0516266 0)
(0.943668 -0.0506758 0)
(0.94284 -0.0497518 0)
(1.01147 -0.000909559 0)
(1.01156 -0.00304638 0)
(1.01173 -0.00487454 0)
(1.01197 -0.00683343 0)
(1.01228 -0.00869627 0)
(1.01265 -0.0105706 0)
(1.01306 -0.0124396 0)
(1.01352 -0.0143117 0)
(1.01401 -0.0161949 0)
(1.01453 -0.0180936 0)
(1.01507 -0.020012 0)
(1.01562 -0.0219536 0)
(1.01617 -0.0239213 0)
(1.01671 -0.0259172 0)
(1.01723 -0.027943 0)
(1.01772 -0.0299996 0)
(1.01817 -0.0320871 0)
(1.01856 -0.0342051 0)
(1.01889 -0.036352 0)
(1.01913 -0.0385254 0)
(1.01929 -0.040722 0)
(1.01934 -0.0429373 0)
(1.01927 -0.0451655 0)
(1.01908 -0.0473999 0)
(1.01874 -0.0496325 0)
(1.01826 -0.0518541 0)
(1.01762 -0.0540545 0)
(1.01682 -0.0562226 0)
(1.01585 -0.0583464 0)
(1.01471 -0.0604133 0)
(1.0134 -0.0624103 0)
(1.01192 -0.0643245 0)
(1.01027 -0.0661429 0)
(1.00847 -0.067853 0)
(1.00652 -0.0694431 0)
(1.00442 -0.0709025 0)
(1.0022 -0.0722218 0)
(0.999863 -0.0733932 0)
(0.997425 -0.0744104 0)
(0.994903 -0.075269 0)
(0.992314 -0.0759666 0)
(0.989674 -0.0765025 0)
(0.986999 -0.0768781 0)
(0.984306 -0.0770964 0)
(0.981611 -0.0771622 0)
(0.978929 -0.0770815 0)
(0.976272 -0.0768611 0)
(0.973655 -0.076509 0)
(0.971088 -0.0760341 0)
(0.968582 -0.0754463 0)
(0.966145 -0.0747569 0)
(0.963785 -0.0739778 0)
(0.961511 -0.0731216 0)
(0.95933 -0.0721999 0)
(0.957244 -0.0712231 0)
(0.955252 -0.0702002 0)
(0.953345 -0.0691393 0)
(0.951517 -0.0680483 0)
(0.949764 -0.0669356 0)
(0.948089 -0.0658092 0)
(0.946495 -0.0646762 0)
(0.944985 -0.0635432 0)
(0.943561 -0.0624155 0)
(0.942221 -0.0612979 0)
(0.940961 -0.0601947 0)
(0.939779 -0.0591095 0)
(0.938669 -0.0580456 0)
(0.937629 -0.0570062 0)
(0.936654 -0.0559936 0)
(1.01224 -0.00094091 0)
(1.01233 -0.00314244 0)
(1.01252 -0.00502959 0)
(1.01278 -0.00705069 0)
(1.01311 -0.00897113 0)
(1.0135 -0.0109049 0)
(1.01395 -0.0128324 0)
(1.01444 -0.0147632 0)
(1.01498 -0.0167054 0)
(1.01554 -0.0186637 0)
(1.01613 -0.0206428 0)
(1.01673 -0.0226467 0)