/*--------------------------------*- C++ -*----------------------------------*\
  =========                 |
  \\      /  F ield         | OpenFOAM: The Open Source CFD Toolbox
   \\    /   O peration     | Website:  https://openfoam.org
    \\  /    A nd           | Version:  10
     \\/     M anipulation  |
\*---------------------------------------------------------------------------*/
FoamFile
{
    format      ascii;
    class       volVectorField;
    location    "310";
    object      U;
}
// * * * * * * * * * * * * * * * * * * * * * * * * * * * * * * * * * * * * * //

dimensions      [0 1 -1 0 0 0 0];

internalField   nonuniform List<vector> 
66268
(
(0.999999 -3.7863e-05 0)
(0.999998 -0.00013821 0)
(0.999999 -0.000219441 0)
(0.999999 -0.00030411 0)
(0.999999 -0.000385828 0)
(0.999999 -0.000464874 0)
(0.999999 -0.000541738 0)
(0.999999 -0.00061637 0)
(0.999999 -0.0006886 0)
(1 -0.000758258 0)
(1 -0.000825134 0)
(1 -0.000888988 0)
(1 -0.000949556 0)
(1 -0.00100657 0)
(1 -0.00105975 0)
(1 -0.00110885 0)
(1 -0.00115362 0)
(1 -0.00119384 0)
(1 -0.00122934 0)
(1 -0.00125996 0)
(1 -0.00128561 0)
(1 -0.00130622 0)
(1 -0.00132179 0)
(1 -0.00133235 0)
(1.00001 -0.00133798 0)
(1.00001 -0.00133881 0)
(1.00001 -0.00133502 0)
(1.00001 -0.0013268 0)
(1.00001 -0.00131438 0)
(1.00001 -0.00129804 0)
(1.00001 -0.00127805 0)
(1.00001 -0.0012547 0)
(1.00001 -0.00122831 0)
(1.00001 -0.00119918 0)
(1.00001 -0.00116763 0)
(1.00001 -0.00113396 0)
(1.00001 -0.0010985 0)
(1.00001 -0.00106154 0)
(1.00001 -0.00102334 0)
(1.00001 -0.000984145 0)
(1.00001 -0.000944142 0)
(1.00001 -0.000903483 0)
(1.00001 -0.00086229 0)
(1.00001 -0.000820667 0)
(1.00001 -0.000778725 0)
(1.00001 -0.000736604 0)
(1.00001 -0.000694495 0)
(1 -0.000652665 0)
(0.99999 -0.000611459 0)
(0.999974 -0.000571266 0)
(0.999954 -0.000532436 0)
(0.999933 -0.000495192 0)
(0.999913 -0.000459568 0)
(0.999898 -0.000425428 0)
(0.99989 -0.00039253 0)
(0.999888 -0.000360588 0)
(0.999893 -0.000329413 0)
(0.999901 -0.000298918 0)
(0.999912 -0.000269126 0)
(0.999924 -0.000240054 0)
(0.999936 -0.000211726 0)
(0.999946 -0.000184313 0)
(0.999955 -0.000157933 0)
(0.999963 -0.000132552 0)
(0.999969 -0.000108218 0)
(0.999974 -8.49847e-05 0)
(0.999978 -6.28169e-05 0)
(0.999981 -4.17296e-05 0)
(0.999984 -2.17435e-05 0)
(1.00017 -0.000120778 0)
(1.00016 -0.000434122 0)
(1.00017 -0.000687183 0)
(1.00017 -0.000953263 0)
(1.00017 -0.00120846 0)
(1.00017 -0.00145454 0)
(1.00017 -0.00169327 0)
(1.00017 -0.00192416 0)
(1.00017 -0.00214665 0)
(1.00017 -0.00236015 0)
(1.00017 -0.00256396 0)
(1.00017 -0.00275728 0)
(1.00016 -0.00293927 0)
(1.00016 -0.00310908 0)
(1.00015 -0.00326586 0)
(1.00014 -0.00340884 0)
(1.00013 -0.00353729 0)
(1.00012 -0.0036506 0)
(1.00011 -0.00374827 0)
(1.0001 -0.00382992 0)
(1.00008 -0.00389533 0)
(1.00007 -0.00394442 0)
(1.00005 -0.00397727 0)
(1.00003 -0.00399411 0)
(1.00001 -0.00399529 0)
(0.999987 -0.00398131 0)
(0.999965 -0.00395279 0)
(0.999942 -0.00391043 0)
(0.999918 -0.00385502 0)
(0.999894 -0.00378747 0)
(0.99987 -0.00370871 0)
(0.999846 -0.00361973 0)
(0.999821 -0.00352151 0)
(0.999797 -0.00341502 0)
(0.999772 -0.00330123 0)
(0.999748 -0.00318105 0)
(0.999725 -0.00305538 0)
(0.999702 -0.00292505 0)
(0.999679 -0.00279087 0)
(0.999656 -0.00265368 0)
(0.999634 -0.00251428 0)
(0.999612 -0.00237354 0)
(0.99959 -0.00223228 0)
(0.999569 -0.00209132 0)
(0.999549 -0.00195138 0)
(0.999531 -0.0018131 0)
(0.999516 -0.00167696 0)
(0.999507 -0.00154328 0)
(0.999505 -0.0014122 0)
(0.999511 -0.00128373 0)
(0.999525 -0.00115779 0)
(0.999541 -0.0010344 0)
(0.999555 -0.000913691 0)
(0.999562 -0.000795976 0)
(0.99956 -0.000681691 0)
(0.999549 -0.00057122 0)
(0.99953 -0.000464534 0)
(0.999507 -0.00036183 0)
(0.999481 -0.000263201 0)
(0.999455 -0.000168438 0)
(0.999431 -7.74121e-05 0)
(0.99941 1.00577e-05 0)
(0.999391 9.40791e-05 0)
(0.999375 0.00017476 0)
(0.999362 0.000252218 0)
(0.999351 0.00032653 0)
(0.999342 0.000397776 0)
(0.999335 0.000466001 0)
(0.999328 0.000531174 0)
(1.00053 -0.000207239 0)
(1.00052 -0.000734605 0)
(1.00053 -0.00116055 0)
(1.00053 -0.00161272 0)
(1.00053 -0.00204391 0)
(1.00053 -0.00245967 0)
(1.00054 -0.0028631 0)
(1.00054 -0.00325301 0)
(1.00053 -0.00362844 0)
(1.00053 -0.00398843 0)
(1.00052 -0.00433173 0)
(1.00051 -0.00465697 0)
(1.0005 -0.00496269 0)
(1.00048 -0.00524741 0)
(1.00046 -0.00550971 0)
(1.00043 -0.00574822 0)
(1.0004 -0.00596171 0)
(1.00036 -0.00614913 0)
(1.00032 -0.00630962 0)
(1.00027 -0.00644254 0)
(1.00022 -0.00654753 0)
(1.00017 -0.00662446 0)
(1.00011 -0.00667346 0)
(1.00005 -0.00669492 0)
(0.999979 -0.00668949 0)
(0.99991 -0.00665802 0)
(0.999838 -0.00660158 0)
(0.999765 -0.00652144 0)
(0.99969 -0.006419 0)
(0.999615 -0.00629581 0)
(0.999539 -0.00615354 0)
(0.999464 -0.00599392 0)
(0.999389 -0.00581869 0)
(0.999315 -0.00562961 0)
(0.999242 -0.00542843 0)
(0.999171 -0.00521687 0)
(0.999102 -0.00499665 0)
(0.999035 -0.00476945 0)
(0.99897 -0.00453687 0)
(0.998908 -0.0043004 0)
(0.998848 -0.00406138 0)
(0.998792 -0.00382094 0)
(0.998738 -0.00358002 0)
(0.998687 -0.00333943 0)
(0.998638 -0.0030998 0)
(0.998592 -0.00286174 0)
(0.998546 -0.00262578 0)
(0.998499 -0.00239247 0)
(0.998449 -0.00216238 0)
(0.998396 -0.00193612 0)
(0.99834 -0.00171428 0)
(0.998286 -0.00149744 0)
(0.998236 -0.00128599 0)
(0.998195 -0.0010802 0)
(0.998166 -0.000880185 0)
(0.998149 -0.000686089 0)
(0.99814 -0.000497995 0)
(0.998138 -0.000315846 0)
(0.998139 -0.000139827 0)
(0.998141 2.98964e-05 0)
(0.998143 0.000193222 0)
(0.998143 0.00035007 0)
(0.998143 0.000500499 0)
(0.998141 0.000644562 0)
(0.998138 0.000782351 0)
(0.998134 0.000913992 0)
(0.99813 0.00103962 0)
(0.998126 0.00115937 0)
(0.998121 0.00127335 0)
(1.00103 -0.000291673 0)
(1.00103 -0.00102465 0)
(1.00104 -0.00161935 0)
(1.00104 -0.00225397 0)
(1.00105 -0.00285664 0)
(1.00105 -0.00343914 0)
(1.00106 -0.00400528 0)
(1.00106 -0.00455308 0)
(1.00106 -0.00508139 0)
(1.00105 -0.00558893 0)
(1.00103 -0.00607393 0)
(1.00101 -0.00653443 0)
(1.00099 -0.00696837 0)
(1.00095 -0.00737362 0)
(1.00091 -0.0077481 0)
(1.00085 -0.00808981 0)
(1.00079 -0.00839693 0)
(1.00071 -0.00866786 0)
(1.00063 -0.00890127 0)
(1.00054 -0.00909615 0)
(1.00044 -0.00925182 0)
(1.00033 -0.00936799 0)
(1.00021 -0.0094447 0)
(1.00008 -0.00948238 0)
(0.999953 -0.0094818 0)
(0.999817 -0.00944409 0)
(0.999676 -0.00937065 0)
(0.999531 -0.00926316 0)
(0.999385 -0.00912353 0)
(0.999237 -0.00895387 0)
(0.999089 -0.0087564 0)
(0.998942 -0.00853349 0)
(0.998796 -0.00828753 0)
(0.998653 -0.00802096 0)
(0.998513 -0.00773617 0)
(0.998376 -0.00743551 0)
(0.998244 -0.00712128 0)
(0.998116 -0.00679561 0)
(0.997993 -0.00646055 0)
(0.997875 -0.00611799 0)
(0.997763 -0.00576977 0)
(0.997655 -0.00541767 0)
(0.997554 -0.00506345 0)
(0.997457 -0.00470883 0)
(0.997366 -0.00435547 0)
(0.997282 -0.00400494 0)
(0.997204 -0.00365862 0)
(0.997136 -0.00331775 0)
(0.997079 -0.00298329 0)
(0.997033 -0.00265599 0)
(0.996998 -0.00233636 0)
(0.996969 -0.00202475 0)
(0.996941 -0.00172146 0)
(0.996909 -0.00142682 0)
(0.99687 -0.00114114 0)
(0.996824 -0.00086468 0)
(0.996772 -0.000597687 0)
(0.996718 -0.000340309 0)
(0.996664 -9.21786e-05 0)
(0.996614 0.000146797 0)
(0.996568 0.000376516 0)
(0.996526 0.000597211 0)
(0.99649 0.0008091 0)
(0.996458 0.00101235 0)
(0.996431 0.00120713 0)
(0.996407 0.0013936 0)
(0.996385 0.00157195 0)
(0.996367 0.00174233 0)
(0.99635 0.00190484 0)
(1.00163 -0.000371388 0)
(1.00163 -0.0012986 0)
(1.00165 -0.0020567 0)
(1.00166 -0.00286644 0)
(1.00167 -0.00363374 0)
(1.00168 -0.00437845 0)
(1.00169 -0.005104 0)
(1.00169 -0.0058078 0)
(1.00169 -0.00648883 0)
(1.00168 -0.00714555 0)
(1.00166 -0.00777567 0)
(1.00163 -0.00837673 0)
(1.00158 -0.00894606 0)
(1.00153 -0.00948089 0)
(1.00146 -0.00997842 0)
(1.00138 -0.010436 0)
(1.00128 -0.010851 0)
(1.00116 -0.0112213 0)
(1.00103 -0.0115449 0)
(1.00089 -0.0118202 0)
(1.00072 -0.012046 0)
(1.00055 -0.0122218 0)
(1.00036 -0.0123472 0)
(1.00016 -0.0124226 0)
(0.999952 -0.0124485 0)
(0.999733 -0.0124261 0)
(0.999506 -0.0123571 0)
(0.999274 -0.0122433 0)
(0.999038 -0.0120869 0)
(0.9988 -0.0118905 0)
(0.99856 -0.0116568 0)
(0.998322 -0.0113889 0)
(0.998085 -0.0110897 0)
(0.997851 -0.0107624 0)
(0.997622 -0.0104103 0)
(0.997398 -0.0100364 0)
(0.99718 -0.00964407 0)
(0.99697 -0.00923622 0)
(0.996766 -0.00881589 0)
(0.99657 -0.00838596 0)
(0.996383 -0.00794915 0)
(0.996204 -0.00750793 0)
(0.996033 -0.0070645 0)
(0.995871 -0.00662072 0)
(0.995717 -0.00617817 0)
(0.995571 -0.00573815 0)
(0.995432 -0.00530178 0)
(0.995297 -0.00487001 0)
(0.995166 -0.0044437 0)
(0.995036 -0.00402376 0)
(0.994909 -0.0036111 0)
(0.994786 -0.0032067 0)
(0.994674 -0.00281148 0)
(0.994575 -0.00242621 0)
(0.994493 -0.00205148 0)
(0.994427 -0.00168772 0)
(0.994375 -0.00133523 0)
(0.994332 -0.000994305 0)
(0.994295 -0.000665075 0)
(0.994262 -0.000347676 0)
(0.994231 -4.22029e-05 0)
(0.994202 0.000251459 0)
(0.994173 0.000533371 0)
(0.994144 0.000803626 0)
(0.994117 0.00106242 0)
(0.994091 0.00130998 0)
(0.994067 0.00154656 0)
(0.994044 0.00177236 0)
(0.994022 0.00198761 0)
(1.00231 -0.000447271 0)
(1.00232 -0.00155934 0)
(1.00234 -0.00247585 0)
(1.00235 -0.00345425 0)
(1.00237 -0.00438097 0)
(1.00239 -0.00528488 0)
(1.0024 -0.00616809 0)
(1.00241 -0.00702785 0)
(1.00241 -0.00786349 0)
(1.0024 -0.00867322 0)
(1.00237 -0.00945436 0)
(1.00233 -0.010204 0)
(1.00228 -0.0109189 0)
(1.00221 -0.0115957 0)
(1.00211 -0.0122308 0)
(1.002 -0.0128208 0)
(1.00186 -0.0133624 0)
(1.0017 -0.0138525 0)
(1.00152 -0.0142884 0)
(1.00132 -0.0146679 0)
(1.00109 -0.0149891 0)
(1.00084 -0.0152507 0)
(1.00057 -0.0154521 0)
(1.00029 -0.0155929 0)
(0.99999 -0.0156736 0)
(0.999676 -0.0156952 0)
(0.99935 -0.0156591 0)
(0.999015 -0.0155673 0)
(0.998674 -0.0154222 0)
(0.998327 -0.0152266 0)
(0.997978 -0.0149836 0)
(0.997629 -0.0146966 0)
(0.997282 -0.0143692 0)
(0.996939 -0.014005 0)
(0.996602 -0.0136078 0)
(0.996271 -0.0131812 0)
(0.99595 -0.0127289 0)
(0.995638 -0.0122544 0)
(0.995337 -0.0117612 0)
(0.995047 -0.0112524 0)
(0.99477 -0.0107311 0)
(0.994505 -0.0102003 0)
(0.994252 -0.00966267 0)
(0.994013 -0.00912111 0)
(0.993786 -0.00857828 0)
(0.993572 -0.00803679 0)
(0.993372 -0.00749904 0)
(0.993186 -0.00696724 0)
(0.993017 -0.0064433 0)
(0.992866 -0.00592879 0)
(0.992731 -0.00542487 0)
(0.992609 -0.00493236 0)
(0.992496 -0.00445182 0)
(0.992386 -0.00398369 0)
(0.992276 -0.00352838 0)
(0.992164 -0.00308629 0)
(0.992052 -0.00265776 0)
(0.991944 -0.00224306 0)
(0.991841 -0.00184231 0)
(0.991746 -0.00145559 0)
(0.99166 -0.00108288 0)
(0.991582 -0.000724123 0)
(0.991511 -0.000379209 0)
(0.991449 -4.80413e-05 0)
(0.991392 0.000269623 0)
(0.991342 0.000573996 0)
(0.991296 0.000865244 0)
(0.991255 0.0011436 0)
(0.991218 0.00140927 0)
(1.00307 -0.000520965 0)
(1.00308 -0.00181057 0)
(1.0031 -0.00288035 0)
(1.00312 -0.00402246 0)
(1.00315 -0.00510507 0)
(1.00318 -0.00616633 0)
(1.0032 -0.00720667 0)
(1.00322 -0.00822362 0)
(1.00322 -0.00921699 0)
(1.00322 -0.0101848 0)
(1.0032 -0.011124 0)
(1.00315 -0.0120316 0)
(1.00309 -0.0129035 0)
(1.003 -0.0137359 0)
(1.00289 -0.0145245 0)
(1.00275 -0.015265 0)
(1.00257 -0.0159533 0)
(1.00237 -0.0165855 0)
(1.00214 -0.0171579 0)
(1.00187 -0.0176674 0)
(1.00158 -0.0181114 0)
(1.00125 -0.0184876 0)
(1.0009 -0.0187947 0)
(1.00053 -0.0190317 0)
(1.00013 -0.0191986 0)
(0.999708 -0.0192958 0)
(0.999272 -0.0193244 0)
(0.998821 -0.0192863 0)
(0.998359 -0.0191838 0)
(0.99789 -0.0190195 0)
(0.997416 -0.0187968 0)
(0.99694 -0.0185191 0)
(0.996466 -0.0181905 0)
(0.995996 -0.017815 0)
(0.995532 -0.0173968 0)
(0.995076 -0.0169403 0)
(0.994631 -0.01645 0)
(0.994199 -0.0159303 0)
(0.99378 -0.0153857 0)
(0.993375 -0.0148204 0)
(0.992986 -0.0142386 0)
(0.992613 -0.0136442 0)
(0.992257 -0.0130409 0)
(0.991917 -0.0124318 0)
(0.991595 -0.0118198 0)
(0.991289 -0.011207 0)
(0.990999 -0.0105956 0)
(0.990724 -0.00998728 0)
(0.990462 -0.00938364 0)
(0.99021 -0.00878623 0)
(0.989968 -0.00819662 0)
(0.989739 -0.00761645 0)
(0.989525 -0.00704732 0)
(0.989332 -0.00649067 0)
(0.98916 -0.00594767 0)
(0.989011 -0.0054192 0)
(0.988881 -0.00490592 0)
(0.988766 -0.00440831 0)
(0.988663 -0.00392672 0)
(0.988569 -0.00346142 0)
(0.988481 -0.00301257 0)
(0.988399 -0.00258023 0)
(0.988322 -0.00216437 0)
(0.988249 -0.0017649 0)
(0.988182 -0.00138166 0)
(0.988119 -0.00101441 0)
(0.98806 -0.000662912 0)
(0.988006 -0.000326904 0)
(0.987956 -6.13088e-06 0)
(1.00391 -0.000592809 0)
(1.00391 -0.00205251 0)
(1.00395 -0.00326943 0)
(1.00398 -0.00457001 0)
(1.00402 -0.00580457 0)
(1.00406 -0.00702067 0)
(1.0041 -0.00821689 0)
(1.00413 -0.00939143 0)
(1.00415 -0.0105447 0)
(1.00416 -0.0116744 0)
(1.00414 -0.0127778 0)
(1.00411 -0.0138511 0)
(1.00404 -0.0148902 0)
(1.00394 -0.0158905 0)
(1.00382 -0.0168471 0)
(1.00365 -0.0177548 0)
(1.00345 -0.0186087 0)
(1.00321 -0.0194039 0)
(1.00292 -0.0201358 0)
(1.0026 -0.0208002 0)
(1.00224 -0.0213934 0)
(1.00184 -0.0219122 0)
(1.0014 -0.0223543 0)
(1.00093 -0.022718 0)
(1.00043 -0.0230021 0)
(0.999896 -0.0232066 0)
(0.99934 -0.0233319 0)
(0.998764 -0.0233793 0)
(0.998172 -0.0233507 0)
(0.997566 -0.0232487 0)
(0.996953 -0.0230765 0)
(0.996334 -0.0228377 0)
(0.995716 -0.0225363 0)
(0.9951 -0.0221769 0)
(0.99449 -0.0217642 0)
(0.99389 -0.0213029 0)
(0.993303 -0.0207979 0)
(0.99273 -0.0202542 0)
(0.992174 -0.0196763 0)
(0.991636 -0.0190689 0)
(0.991119 -0.0184363 0)
(0.990623 -0.0177825 0)
(0.990149 -0.0171118 0)
(0.989697 -0.0164279 0)
(0.989268 -0.0157349 0)
(0.988862 -0.0150367 0)
(0.988479 -0.0143369 0)
(0.988119 -0.0136393 0)
(0.987784 -0.0129469 0)
(0.987474 -0.0122627 0)
(0.98719 -0.0115888 0)
(0.986928 -0.0109268 0)
(0.986685 -0.0102781 0)
(0.986456 -0.00964337 0)
(0.986235 -0.00902356 0)
(0.986021 -0.00841939 0)
(0.985815 -0.00783159 0)
(0.98562 -0.00726074 0)
(0.985436 -0.00670733 0)
(0.985266 -0.00617171 0)
(0.98511 -0.00565409 0)
(0.984968 -0.00515461 0)
(0.984839 -0.00467331 0)
(0.984722 -0.00421017 0)
(0.984615 -0.00376509 0)
(0.984518 -0.00333793 0)
(0.98443 -0.00292848 0)
(0.98435 -0.00253652 0)
(0.984276 -0.00216187 0)
(1.0048 -0.000661907 0)
(1.00481 -0.00228249 0)
(1.00486 -0.003639 0)
(1.0049 -0.00509107 0)
(1.00496 -0.00647172 0)
(1.00502 -0.00783811 0)
(1.00508 -0.00918674 0)
(1.00513 -0.0105169 0)
(1.00518 -0.0118296 0)
(1.0052 -0.0131226 0)
(1.0052 -0.014393 0)
(1.00518 -0.015637 0)
(1.00512 -0.0168502 0)
(1.00502 -0.0180274 0)
(1.00489 -0.019163 0)
(1.00471 -0.0202513 0)
(1.00448 -0.0212862 0)
(1.00421 -0.022262 0)
(1.00389 -0.023173 0)
(1.00351 -0.0240139 0)
(1.00308 -0.0247798 0)
(1.00261 -0.0254664 0)
(1.00209 -0.0260702 0)
(1.00152 -0.0265883 0)
(1.00091 -0.0270186 0)
(1.00027 -0.02736 0)
(0.999588 -0.0276121 0)
(0.998879 -0.0277754 0)
(0.998147 -0.0278513 0)
(0.997395 -0.0278418 0)
(0.99663 -0.0277497 0)
(0.995856 -0.0275786 0)
(0.995079 -0.0273325 0)
(0.994302 -0.0270157 0)
(0.993531 -0.0266331 0)
(0.992769 -0.0261899 0)
(0.992021 -0.0256912 0)
(0.991289 -0.0251427 0)
(0.990576 -0.0245499 0)
(0.989886 -0.0239184 0)
(0.989218 -0.023254 0)
(0.988576 -0.0225623 0)
(0.987959 -0.0218487 0)
(0.987369 -0.0211181 0)
(0.986807 -0.020375 0)
(0.986271 -0.0196235 0)
(0.985763 -0.0188667 0)
(0.985282 -0.0181076 0)
(0.984825 -0.0173488 0)
(0.98439 -0.0165927 0)
(0.983978 -0.0158416 0)
(0.983587 -0.0150981 0)
(0.98322 -0.0143645 0)
(0.982881 -0.0136431 0)
(0.982572 -0.012936 0)
(0.982294 -0.0122448 0)
(0.982043 -0.0115708 0)
(0.981816 -0.0109148 0)
(0.981609 -0.0102777 0)
(0.981418 -0.00966016 0)
(0.98124 -0.0090626 0)
(0.981075 -0.00848536 0)
(0.980921 -0.00792866 0)
(0.980777 -0.00739256 0)
(0.980644 -0.00687706 0)
(0.980521 -0.00638203 0)
(0.980407 -0.00590729 0)
(0.980302 -0.00545264 0)
(0.980205 -0.00501786 0)
(1.00574 -0.000726987 0)
(1.00575 -0.00249712 0)
(1.00581 -0.00398423 0)
(1.00587 -0.00557871 0)
(1.00596 -0.00709739 0)
(1.00604 -0.00860708 0)
(1.00613 -0.0101021 0)
(1.00621 -0.0115832 0)
(1.00628 -0.0130518 0)
(1.00633 -0.0145061 0)
(1.00635 -0.0159431 0)
(1.00635 -0.0173592 0)
(1.0063 -0.0187495 0)
(1.00622 -0.0201086 0)
(1.00609 -0.0214303 0)
(1.0059 -0.022708 0)
(1.00566 -0.0239352 0)
(1.00537 -0.0251048 0)
(1.00501 -0.0262102 0)
(1.00459 -0.0272449 0)
(1.00411 -0.0282028 0)
(1.00356 -0.0290783 0)
(1.00296 -0.0298665 0)
(1.0023 -0.0305633 0)
(1.00159 -0.0311653 0)
(1.00083 -0.0316703 0)
(1.00003 -0.0320766 0)
(0.999184 -0.0323838 0)
(0.998307 -0.0325924 0)
(0.997403 -0.0327036 0)
(0.996478 -0.0327196 0)
(0.995539 -0.0326435 0)
(0.994591 -0.0324789 0)
(0.99364 -0.0322303 0)
(0.992693 -0.0319026 0)
(0.991753 -0.0315011 0)
(0.990827 -0.0310317 0)
(0.989917 -0.0305003 0)
(0.989028 -0.0299131 0)
(0.988164 -0.029276 0)
(0.987326 -0.028595 0)
(0.986518 -0.0278756 0)
(0.985742 -0.0271232 0)
(0.984999 -0.026343 0)
(0.984289 -0.0255403 0)
(0.983614 -0.0247202 0)
(0.982973 -0.023888 0)
(0.982368 -0.0230489 0)
(0.981799 -0.0222076 0)
(0.981266 -0.0213687 0)
(0.98077 -0.0205358 0)
(0.980309 -0.0197121 0)
(0.979879 -0.0188996 0)
(0.979476 -0.0181004 0)
(0.979093 -0.0173158 0)
(0.978728 -0.0165473 0)
(0.978382 -0.0157962 0)
(0.978054 -0.0150638 0)
(0.977748 -0.0143509 0)
(0.977464 -0.0136586 0)
(0.977202 -0.0129874 0)
(0.976961 -0.0123378 0)
(0.97674 -0.0117101 0)
(0.976537 -0.0111046 0)
(0.976351 -0.0105213 0)
(0.976181 -0.00996036 0)
(0.976024 -0.00942155 0)
(0.975881 -0.00890481 0)
(0.975749 -0.00841002 0)
(1.00671 -0.00078691 0)
(1.00673 -0.00269345 0)
(1.0068 -0.00430087 0)
(1.00689 -0.00602683 0)
(1.00699 -0.00767356 0)
(1.00711 -0.00931744 0)
(1.00723 -0.0109506 0)
(1.00734 -0.0125754 0)
(1.00744 -0.0141938 0)
(1.00753 -0.0158042 0)
(1.00758 -0.0174043 0)
(1.00761 -0.0189902 0)
(1.00759 -0.020557 0)
(1.00752 -0.0220991 0)
(1.0074 -0.0236098 0)
(1.00723 -0.0250819 0)
(1.00698 -0.026508 0)
(1.00667 -0.0278803 0)
(1.00629 -0.029191 0)
(1.00584 -0.0304324 0)
(1.00531 -0.0315972 0)
(1.00471 -0.0326784 0)
(1.00403 -0.0336697 0)
(1.00329 -0.0345656 0)
(1.00248 -0.0353614 0)
(1.00161 -0.0360532 0)
(1.00068 -0.0366382 0)
(0.999704 -0.0371146 0)
(0.998681 -0.0374818 0)
(0.997622 -0.03774 0)
(0.996532 -0.0378906 0)
(0.99542 -0.0379359 0)
(0.994292 -0.0378792 0)
(0.993156 -0.0377245 0)
(0.992018 -0.0374765 0)
(0.990886 -0.0371407 0)
(0.989765 -0.0367228 0)
(0.98866 -0.0362289 0)
(0.987577 -0.0356655 0)
(0.98652 -0.0350393 0)
(0.985493 -0.0343571 0)
(0.984499 -0.033626 0)
(0.98354 -0.0328529 0)
(0.982618 -0.0320448 0)
(0.981735 -0.0312083 0)
(0.980891 -0.0303494 0)
(0.980088 -0.0294733 0)
(0.979324 -0.0285847 0)
(0.978599 -0.0276876 0)
(0.977911 -0.0267856 0)
(0.977259 -0.0258823 0)
(0.976641 -0.0249811 0)
(0.976059 -0.0240856 0)
(0.975515 -0.0231994 0)
(0.975011 -0.0223256 0)
(0.974548 -0.0214668 0)
(0.974125 -0.0206253 0)
(0.973735 -0.0198028 0)
(0.973377 -0.0190006 0)
(0.973044 -0.0182202 0)
(0.972735 -0.0174623 0)
(0.972448 -0.0167278 0)
(0.972181 -0.0160173 0)
(0.971932 -0.0153312 0)
(0.971701 -0.0146697 0)
(0.971488 -0.014033 0)
(0.97129 -0.0134211 0)
(0.971107 -0.0128339 0)
(0.970939 -0.0122713 0)
(1.00769 -0.000840865 0)
(1.00773 -0.00286931 0)
(1.00782 -0.00458561 0)
(1.00792 -0.00643065 0)
(1.00806 -0.00819392 0)
(1.00821 -0.00996116 0)
(1.00836 -0.0117223 0)
(1.00852 -0.0134814 0)
(1.00866 -0.015241 0)
(1.00878 -0.0170002 0)
(1.00888 -0.0187568 0)
(1.00894 -0.0205074 0)
(1.00896 -0.022247 0)
(1.00892 -0.0239698 0)
(1.00883 -0.0256688 0)
(1.00867 -0.0273363 0)
(1.00844 -0.0289643 0)
(1.00813 -0.0305441 0)
(1.00773 -0.0320669 0)
(1.00726 -0.0335239 0)
(1.00669 -0.0349065 0)
(1.00604 -0.0362064 0)
(1.00531 -0.0374159 0)
(1.00449 -0.0385279 0)
(1.00359 -0.039536 0)
(1.00262 -0.040435 0)
(1.00157 -0.0412206 0)
(1.00046 -0.0418894 0)
(0.999295 -0.0424394 0)
(0.998078 -0.0428697 0)
(0.99682 -0.0431805 0)
(0.99553 -0.0433731 0)
(0.994214 -0.0434499 0)
(0.992883 -0.0434144 0)
(0.991544 -0.0432708 0)
(0.990205 -0.0430242 0)
(0.988874 -0.0426803 0)
(0.987558 -0.0422455 0)
(0.986262 -0.0417268 0)
(0.984993 -0.0411313 0)
(0.983755 -0.0404664 0)
(0.982553 -0.0397392 0)
(0.981391 -0.038957 0)
(0.980271 -0.0381263 0)
(0.979196 -0.0372541 0)
(0.978167 -0.0363467 0)
(0.977187 -0.0354111 0)
(0.976256 -0.0344539 0)
(0.975373 -0.0334817 0)
(0.974541 -0.032501 0)
(0.973759 -0.0315175 0)
(0.973026 -0.0305359 0)
(0.97234 -0.0295602 0)
(0.971696 -0.0285936 0)
(0.971088 -0.0276388 0)
(0.970513 -0.0266981 0)
(0.969969 -0.0257739 0)
(0.969457 -0.0248682 0)
(0.968976 -0.0239831 0)
(0.968529 -0.02312 0)
(0.968114 -0.0222802 0)
(0.967731 -0.0214649 0)
(0.967377 -0.0206747 0)
(0.96705 -0.0199103 0)
(0.966749 -0.0191721 0)
(0.966472 -0.0184605 0)
(0.966216 -0.0177755 0)
(0.96598 -0.0171173 0)
(0.965763 -0.0164859 0)
(1.00869 -0.000888464 0)
(1.00874 -0.00302358 0)
(1.00884 -0.00483642 0)
(1.00897 -0.00678715 0)
(1.00914 -0.00865448 0)
(1.00932 -0.010533 0)
(1.00952 -0.0124106 0)
(1.00972 -0.0142931 0)
(1.00991 -0.0161837 0)
(1.01008 -0.0180821 0)
(1.01023 -0.0199867 0)
(1.01034 -0.0218943 0)
(1.0104 -0.0238003 0)
(1.01041 -0.0256985 0)
(1.01035 -0.0275821 0)
(1.01022 -0.0294429 0)
(1.01001 -0.0312723 0)
(1.00971 -0.033061 0)
(1.00932 -0.0347992 0)
(1.00884 -0.0364772 0)
(1.00825 -0.038085 0)
(1.00757 -0.0396132 0)
(1.00678 -0.0410524 0)
(1.0059 -0.0423942 0)
(1.00492 -0.0436305 0)
(1.00385 -0.0447544 0)
(1.0027 -0.0457599 0)
(1.00146 -0.0466422 0)
(1.00015 -0.0473975 0)
(0.998782 -0.0480235 0)
(0.997356 -0.0485189 0)
(0.995885 -0.0488838 0)
(0.994378 -0.0491194 0)
(0.992845 -0.0492284 0)
(0.991295 -0.0492142 0)
(0.989739 -0.0490815 0)
(0.988185 -0.0488357 0)
(0.986641 -0.0484832 0)
(0.985116 -0.0480307 0)
(0.983616 -0.0474856 0)
(0.982149 -0.0468555 0)
(0.980718 -0.0461484 0)
(0.979331 -0.0453727 0)
(0.977989 -0.0445368 0)
(0.976697 -0.0436494 0)
(0.975456 -0.0427188 0)
(0.974268 -0.0417524 0)
(0.973135 -0.0407574 0)
(0.972057 -0.0397396 0)
(0.971032 -0.0387046 0)
(0.970058 -0.0376573 0)
(0.969135 -0.0366027 0)
(0.968263 -0.0355458 0)
(0.967442 -0.0344915 0)
(0.966674 -0.0334447 0)
(0.965961 -0.0324094 0)
(0.965301 -0.0313891 0)
(0.96469 -0.0303867 0)
(0.964124 -0.0294047 0)
(0.963598 -0.028445 0)
(0.963108 -0.0275095 0)
(0.962652 -0.0265997 0)
(0.962227 -0.0257166 0)
(0.961832 -0.0248613 0)
(0.961465 -0.0240345 0)
(0.961125 -0.0232367 0)
(0.960809 -0.0224681 0)
(0.960517 -0.021729 0)
(0.960247 -0.0210194 0)
(1.00968 -0.000929695 0)
(1.00974 -0.00315621 0)
(1.00986 -0.00505279 0)
(1.01002 -0.00709551 0)
(1.01022 -0.00905403 0)
(1.01045 -0.0110313 0)
(1.01069 -0.013013 0)
(1.01094 -0.015007 0)
(1.01118 -0.0170171 0)
(1.01141 -0.0190439 0)
(1.01161 -0.0210863 0)
(1.01178 -0.0231416 0)
(1.01189 -0.0252053 0)
(1.01195 -0.0272717 0)
(1.01194 -0.0293336 0)
(1.01185 -0.0313829 0)
(1.01168 -0.0334103 0)
(1.0114 -0.0354062 0)
(1.01103 -0.03736 0)
(1.01055 -0.0392609 0)
(1.00996 -0.0410981 0)
(1.00926 -0.0428606 0)
(1.00844 -0.044538 0)
(1.0075 -0.04612 0)
(1.00646 -0.0475971 0)
(1.00531 -0.0489607 0)
(1.00405 -0.0502029 0)
(1.0027 -0.0513173 0)
(1.00126 -0.0522983 0)
(0.999738 -0.0531417 0)
(0.998147 -0.0538448 0)
(0.996497 -0.054406 0)
(0.994797 -0.0548255 0)
(0.993058 -0.0551043 0)
(0.991292 -0.0552451 0)
(0.98951 -0.0552515 0)
(0.987723 -0.0551285 0)
(0.985939 -0.0548819 0)
(0.984169 -0.0545182 0)
(0.982422 -0.0540451 0)
(0.980706 -0.0534705 0)
(0.979027 -0.0528029 0)
(0.977392 -0.0520511 0)
(0.975807 -0.0512234 0)
(0.974276 -0.0503284 0)
(0.972802 -0.0493743 0)
(0.97139 -0.0483694 0)
(0.970041 -0.047322 0)
(0.968755 -0.0462406 0)
(0.967535 -0.0451338 0)
(0.966381 -0.0440095 0)
(0.965292 -0.042875 0)
(0.964268 -0.0417364 0)
(0.963305 -0.0405989 0)
(0.962397 -0.0394668 0)
(0.96154 -0.0383439 0)
(0.96073 -0.037234 0)
(0.959968 -0.0361403 0)
(0.959252 -0.035066 0)
(0.958583 -0.0340138 0)
(0.957961 -0.0329859 0)
(0.957383 -0.0319842 0)
(0.956847 -0.0310102 0)
(0.956351 -0.0300651 0)
(0.955892 -0.02915 0)
(0.955468 -0.0282656 0)
(0.955075 -0.0274124 0)
(0.954711 -0.0265908 0)
(0.954376 -0.0258011 0)
(1.01066 -0.000964805 0)
(1.01073 -0.00326803 0)
(1.01087 -0.0052358 0)
(1.01106 -0.00735713 0)
(1.0113 -0.00939416 0)
(1.01157 -0.0114574 0)
(1.01186 -0.013531 0)
(1.01216 -0.0156242 0)
(1.01246 -0.0177419 0)
(1.01275 -0.0198854 0)
(1.01302 -0.0220544 0)
(1.01325 -0.0242467 0)
(1.01343 -0.0264582 0)
(1.01354 -0.0286835 0)
(1.01359 -0.0309155 0)
(1.01356 -0.0331461 0)
(1.01343 -0.0353659 0)
(1.01319 -0.0375646 0)
(1.01285 -0.0397312 0)
(1.01239 -0.0418541 0)
(1.01181 -0.0439215 0)
(1.0111 -0.0459214 0)
(1.01026 -0.0478419 0)
(1.00929 -0.0496713 0)
(1.00819 -0.0513987 0)
(1.00697 -0.0530135 0)
(1.00563 -0.0545063 0)
(1.00417 -0.0558687 0)
(1.00261 -0.0570933 0)
(1.00095 -0.058174 0)
(0.9992 -0.0591063 0)
(0.997375 -0.059887 0)
(0.995484 -0.0605143 0)
(0.99354 -0.060988 0)
(0.991555 -0.0613093 0)
(0.989542 -0.0614807 0)
(0.987512 -0.0615062 0)
(0.985478 -0.0613908 0)
(0.983451 -0.061141 0)
(0.981441 -0.0607637 0)
(0.979458 -0.0602671 0)
(0.977511 -0.0596597 0)
(0.975608 -0.0589504 0)
(0.973757 -0.058149 0)
(0.971963 -0.0572654 0)
(0.97023 -0.0563099 0)
(0.968563 -0.0552924 0)
(0.966964 -0.0542224 0)
(0.965435 -0.0531086 0)
(0.963977 -0.0519588 0)
(0.962589 -0.0507801 0)
(0.96127 -0.0495792 0)
(0.960019 -0.0483631 0)
(0.958836 -0.0471384 0)
(0.957724 -0.045912 0)
(0.956682 -0.0446899 0)
(0.955712 -0.0434775 0)
(0.954809 -0.0422793 0)
(0.953969 -0.041099 0)
(0.953186 -0.0399401 0)
(0.952456 -0.0388055 0)
(0.951775 -0.0376975 0)
(0.95114 -0.0366183 0)
(0.950549 -0.0355696 0)
(0.949999 -0.0345529 0)
(0.949489 -0.0335691 0)
(0.949015 -0.0326191 0)
(0.948575 -0.0317035 0)
(0.948168 -0.0308228 0)
(1.01162 -0.00099422 0)
(1.0117 -0.00336058 0)
(1.01187 -0.00538778 0)
(1.01208 -0.00757518 0)
(1.01236 -0.00967872 0)
(1.01267 -0.0118159 0)
(1.01302 -0.0139691 0)
(1.01338 -0.0161496 0)
(1.01374 -0.0183629 0)
(1.0141 -0.0206113 0)
(1.01443 -0.0228951 0)
(1.01473 -0.025213 0)
(1.01498 -0.0275613 0)
(1.01517 -0.0299351 0)
(1.01529 -0.0323276 0)
(1.01531 -0.0347306 0)
(1.01524 -0.0371348 0)
(1.01506 -0.0395297 0)
(1.01476 -0.0419039 0)
(1.01434 -0.0442451 0)
(1.01378 -0.0465408 0)
(1.01308 -0.0487779 0)
(1.01223 -0.0509434 0)
(1.01125 -0.0530243 0)
(1.01011 -0.0550081 0)
(1.00884 -0.0568827 0)
(1.00742 -0.058637 0)
(1.00588 -0.0602605 0)
(1.0042 -0.0617441 0)
(1.00241 -0.0630798 0)
(1.00052 -0.064261 0)
(0.998525 -0.0652826 0)
(0.996449 -0.0661409 0)
(0.994302 -0.0668339 0)
(0.992099 -0.0673612 0)
(0.989852 -0.0677238 0)
(0.987575 -0.0679244 0)
(0.985283 -0.0679671 0)
(0.982987 -0.0678571 0)
(0.980701 -0.0676011 0)
(0.978436 -0.0672067 0)
(0.976203 -0.0666824 0)
(0.974013 -0.0660375 0)
(0.971873 -0.065282 0)
(0.969793 -0.0644257 0)
(0.967778 -0.0634787 0)
(0.965835 -0.062451 0)
(0.963967 -0.0613526 0)
(0.962177 -0.0601939 0)
(0.960469 -0.0589855 0)
(0.958844 -0.0577378 0)
(0.957302 -0.056461 0)
(0.955845 -0.0551641 0)
(0.95447 -0.0538548 0)
(0.953173 -0.0525398 0)
(0.951949 -0.051225 0)
(0.950793 -0.0499157 0)
(0.949703 -0.0486172 0)
(0.948678 -0.0473343 0)
(0.947719 -0.0460711 0)
(0.946823 -0.0448314 0)
(0.945989 -0.0436182 0)
(0.945214 -0.0424341 0)
(0.944494 -0.0412815 0)
(0.943827 -0.0401619 0)
(0.943207 -0.039077 0)
(0.942633 -0.0380277 0)
(0.942102 -0.0370151 0)
(0.941609 -0.0360399 0)
(1.01256 -0.00101852 0)
(1.01265 -0.0034359 0)
(1.01284 -0.00551203 0)
(1.01308 -0.00775416 0)
(1.0134 -0.00991322 0)
(1.01376 -0.0121131 0)
(1.01416 -0.0143347 0)
(1.01458 -0.0165909 0)
(1.01501 -0.0188882 0)
(1.01544 -0.0212297 0)
(1.01585 -0.0236167 0)
(1.01622 -0.0260485 0)
(1.01655 -0.0285222 0)
(1.01682 -0.0310332 0)
(1.01701 -0.0335753 0)
(1.01711 -0.0361407 0)
(1.01711 -0.03872 0)
(1.01699 -0.0413026 0)
(1.01675 -0.043877 0)
(1.01637 -0.0464305 0)
(1.01585 -0.0489499 0)
(1.01517 -0.0514213 0)
(1.01434 -0.0538308 0)
(1.01335 -0.0561642 0)
(1.0122 -0.0584077 0)
(1.01089 -0.0605476 0)
(1.00942 -0.062571 0)
(1.0078 -0.064466 0)
(1.00603 -0.0662213 0)
(1.00413 -0.067827 0)
(1.00209 -0.0692744 0)
(0.999944 -0.0705564 0)
(0.997692 -0.0716674 0)
(0.99535 -0.0726032 0)
(0.992931 -0.0733615 0)
(0.990452 -0.0739416 0)
(0.987927 -0.0743444 0)
(0.985372 -0.0745725 0)
(0.982801 -0.0746301 0)
(0.980228 -0.0745227 0)
(0.977668 -0.0742573 0)
(0.975133 -0.0738421 0)
(0.972636 -0.0732861 0)
(0.970188 -0.0725993 0)
(0.967799 -0.0717923 0)
(0.965476 -0.0708765 0)
(0.963227 -0.0698638 0)
(0.961057 -0.0687661 0)
(0.958972 -0.0675947 0)
(0.956973 -0.0663603 0)
(0.955063 -0.0650728 0)
(0.953243 -0.0637412 0)
(0.951511 -0.0623747 0)
(0.949867 -0.0609821 0)
(0.948314 -0.0595727 0)
(0.946852 -0.0581552 0)
(0.945482 -0.0567374 0)
(0.944202 -0.0553261 0)
(0.943007 -0.0539271 0)
(0.941892 -0.0525456 0)
(0.94085 -0.0511861 0)
(0.939877 -0.0498525 0)
(0.93897 -0.0485483 0)
(0.938124 -0.0472764 0)
(0.937336 -0.0460391 0)
(0.936604 -0.0448385 0)
(0.935924 -0.043676 0)
(0.935293 -0.0425531 0)
(0.934708 -0.0414706 0)
(1.01346 -0.0010384 0)
(1.01357 -0.00349638 0)
(1.01378 -0.00561234 0)
(1.01406 -0.00789932 0)
(1.01441 -0.0101042 0)
(1.01482 -0.0123567 0)
(1.01528 -0.0146364 0)
(1.01576 -0.0169577 0)
(1.01626 -0.0193281 0)
(1.01676 -0.0217515 0)
(1.01725 -0.0242303 0)
(1.0177 -0.0267644 0)
(1.01811 -0.0293518 0)
(1.01846 -0.0319885 0)
(1.01874 -0.0346688 0)
(1.01892 -0.0373854 0)
(1.019 -0.0401291 0)
(1.01896 -0.0428896 0)
(1.01879 -0.0456551 0)
(1.01847 -0.0484129 0)
(1.018 -0.0511493 0)
(1.01737 -0.0538498 0)
(1.01656 -0.0564997 0)
(1.01559 -0.0590838 0)
(1.01443 -0.0615871 0)
(1.0131 -0.0639947 0)
(1.01159 -0.0662922 0)
(1.00992 -0.0684657 0)
(1.00807 -0.0705024 0)
(1.00607 -0.0723903 0)
(1.00392 -0.0741189 0)
(1.00163 -0.0756788 0)
(0.99921 -0.0770622 0)
(0.996682 -0.0782629 0)
(0.994057 -0.0792763 0)
(0.991352 -0.0800997 0)
(0.988581 -0.080732 0)
(0.985762 -0.0811741 0)
(0.982912 -0.0814284 0)
(0.980046 -0.0814991 0)
(0.97718 -0.081392 0)
(0.97433 -0.0811143 0)
(0.971511 -0.0806745 0)
(0.968735 -0.0800824 0)
(0.966014 -0.0793484 0)
(0.96336 -0.0784838 0)
(0.960782 -0.0774999 0)
(0.958288 -0.0764085 0)
(0.955884 -0.0752217 0)
(0.953576 -0.0739519 0)
(0.951368 -0.0726122 0)
(0.949262 -0.0712155 0)
(0.94726 -0.0697743 0)
(0.945365 -0.0682997 0)
(0.943573 -0.0668015 0)
(0.941879 -0.0652883 0)
(0.940279 -0.0637679 0)
(0.938769 -0.0622479 0)
(0.937347 -0.0607353 0)
(0.936013 -0.0592365 0)
(0.934765 -0.0577574 0)