/*--------------------------------*- C++ -*----------------------------------*\
  =========                 |
  \\      /  F ield         | OpenFOAM: The Open Source CFD Toolbox
   \\    /   O peration     | Website:  https://openfoam.org
    \\  /    A nd           | Version:  10
     \\/     M anipulation  |
\*---------------------------------------------------------------------------*/
FoamFile
{
    format      ascii;
    class       volVectorField;
    location    "370";
    object      U;
}
// * * * * * * * * * * * * * * * * * * * * * * * * * * * * * * * * * * * * * //

dimensions      [0 1 -1 0 0 0 0];

internalField   nonuniform List<vector> 
66268
(
(1 -3.81426e-05 0)
(1 -0.000140186 0)
(1 -0.000224303 0)
(1 -0.000313057 0)
(1 -0.000400899 0)
(1 -0.000488591 0)
(1 -0.000576783 0)
(1 -0.000665614 0)
(1 -0.000755061 0)
(1 -0.000845022 0)
(1 -0.000935295 0)
(1 -0.00102559 0)
(1 -0.00111555 0)
(1 -0.00120475 0)
(1 -0.00129274 0)
(1 -0.00137902 0)
(1 -0.00146309 0)
(1 -0.00154446 0)
(1 -0.00162266 0)
(0.999999 -0.00169721 0)
(0.999999 -0.00176773 0)
(0.999999 -0.00183383 0)
(0.999999 -0.00189521 0)
(0.999998 -0.00195162 0)
(0.999998 -0.00200287 0)
(0.999998 -0.00204884 0)
(0.999998 -0.00208947 0)
(0.999997 -0.00212476 0)
(0.999997 -0.00215475 0)
(0.999997 -0.00217957 0)
(0.999997 -0.00219936 0)
(0.999997 -0.00221432 0)
(0.999997 -0.00222468 0)
(0.999997 -0.00223071 0)
(0.999997 -0.0022327 0)
(0.999997 -0.00223097 0)
(0.999997 -0.00222585 0)
(0.999997 -0.00221766 0)
(0.999997 -0.00220671 0)
(0.999997 -0.00219328 0)
(0.999997 -0.00217762 0)
(0.999998 -0.00215993 0)
(0.999998 -0.00214037 0)
(0.999998 -0.0021191 0)
(0.999998 -0.00209627 0)
(0.999996 -0.00207203 0)
(0.999993 -0.00204657 0)
(0.999987 -0.00202013 0)
(0.999977 -0.00199299 0)
(0.999962 -0.00196547 0)
(0.999943 -0.00193788 0)
(0.999922 -0.00191048 0)
(0.999902 -0.00188341 0)
(0.999887 -0.00185672 0)
(0.999878 -0.00183035 0)
(0.999876 -0.00180425 0)
(0.999879 -0.00177839 0)
(0.999888 -0.00175279 0)
(0.999899 -0.00172753 0)
(0.999912 -0.0017027 0)
(0.999924 -0.00167841 0)
(0.999936 -0.00165477 0)
(0.999946 -0.00163185 0)
(0.999955 -0.00160972 0)
(0.999962 -0.00158841 0)
(0.999968 -0.00156794 0)
(0.999973 -0.00154833 0)
(0.999977 -0.00152958 0)
(0.99998 -0.00151173 0)
(1.00016 -0.000106992 0)
(1.00016 -0.000387043 0)
(1.00017 -0.000617483 0)
(1.00017 -0.00086388 0)
(1.00018 -0.00110736 0)
(1.00019 -0.001351 0)
(1.0002 -0.00159691 0)
(1.0002 -0.00184544 0)
(1.00021 -0.00209657 0)
(1.00022 -0.00235009 0)
(1.00023 -0.00260545 0)
(1.00024 -0.00286187 0)
(1.00025 -0.00311832 0)
(1.00026 -0.00337361 0)
(1.00026 -0.00362641 0)
(1.00027 -0.0038753 0)
(1.00027 -0.0041188 0)
(1.00027 -0.00435543 0)
(1.00027 -0.00458374 0)
(1.00027 -0.00480235 0)
(1.00026 -0.00500998 0)
(1.00025 -0.0052055 0)
(1.00025 -0.0053879 0)
(1.00023 -0.00555637 0)
(1.00022 -0.00571026 0)
(1.00021 -0.00584912 0)
(1.00019 -0.00597267 0)
(1.00017 -0.00608081 0)
(1.00015 -0.00617362 0)
(1.00013 -0.00625132 0)
(1.00011 -0.0063143 0)
(1.00008 -0.00636304 0)
(1.00006 -0.00639815 0)
(1.00003 -0.00642032 0)
(1.00001 -0.00643025 0)
(0.999984 -0.00642867 0)
(0.999958 -0.00641631 0)
(0.999933 -0.00639393 0)
(0.999908 -0.00636229 0)
(0.999883 -0.00632222 0)
(0.999857 -0.00627459 0)
(0.999833 -0.00622033 0)
(0.999808 -0.00616041 0)
(0.999783 -0.00609578 0)
(0.99976 -0.00602738 0)
(0.999737 -0.00595605 0)
(0.999717 -0.00588256 0)
(0.999702 -0.00580752 0)
(0.999692 -0.0057314 0)
(0.999688 -0.00565457 0)
(0.999691 -0.00557728 0)
(0.999696 -0.00549974 0)
(0.999701 -0.00542224 0)
(0.999701 -0.00534508 0)
(0.999694 -0.00526864 0)
(0.999679 -0.00519323 0)
(0.999657 -0.00511915 0)
(0.99963 -0.00504655 0)
(0.999602 -0.00497554 0)
(0.999574 -0.00490619 0)
(0.999547 -0.00483851 0)
(0.999523 -0.00477253 0)
(0.999501 -0.00470828 0)
(0.999483 -0.0046458 0)
(0.999466 -0.00458512 0)
(0.999452 -0.0045263 0)
(0.99944 -0.00446936 0)
(0.999429 -0.00441436 0)
(0.99942 -0.00436139 0)
(1.00047 -0.000169856 0)
(1.00047 -0.000605851 0)
(1.00048 -0.000964092 0)
(1.0005 -0.00135156 0)
(1.00052 -0.00173301 0)
(1.00054 -0.00211486 0)
(1.00056 -0.00250099 0)
(1.00059 -0.0028917 0)
(1.00062 -0.00328708 0)
(1.00064 -0.00368687 0)
(1.00067 -0.00409032 0)
(1.0007 -0.00449621 0)
(1.00072 -0.00490298 0)
(1.00074 -0.0053088 0)
(1.00076 -0.00571156 0)
(1.00078 -0.00610901 0)
(1.00079 -0.00649877 0)
(1.00079 -0.00687846 0)
(1.00079 -0.0072457 0)
(1.00078 -0.00759823 0)
(1.00077 -0.00793391 0)
(1.00075 -0.0082508 0)
(1.00072 -0.00854721 0)
(1.00069 -0.0088217 0)
(1.00065 -0.00907311 0)
(1.00061 -0.00930058 0)
(1.00056 -0.00950357 0)
(1.0005 -0.00968179 0)
(1.00044 -0.00983528 0)
(1.00038 -0.00996433 0)
(1.00032 -0.0100694 0)
(1.00025 -0.0101514 0)
(1.00018 -0.010211 0)
(1.0001 -0.0102494 0)
(1.00003 -0.0102677 0)
(0.999957 -0.0102674 0)
(0.999882 -0.0102497 0)
(0.999808 -0.0102163 0)
(0.999735 -0.0101686 0)
(0.999663 -0.0101081 0)
(0.999592 -0.0100362 0)
(0.999522 -0.00995432 0)
(0.999454 -0.00986344 0)
(0.999388 -0.00976462 0)
(0.999324 -0.00965876 0)
(0.999261 -0.00954671 0)
(0.9992 -0.00942929 0)
(0.999138 -0.00930731 0)
(0.999075 -0.00918164 0)
(0.999009 -0.00905314 0)
(0.998942 -0.00892271 0)
(0.998875 -0.00879122 0)
(0.998812 -0.00865944 0)
(0.998756 -0.008528 0)
(0.99871 -0.00839742 0)
(0.998674 -0.00826813 0)
(0.998647 -0.00814053 0)
(0.998626 -0.00801498 0)
(0.998609 -0.00789184 0)
(0.998594 -0.00777143 0)
(0.99858 -0.00765402 0)
(0.998566 -0.00753985 0)
(0.998552 -0.0074291 0)
(0.998537 -0.00732189 0)
(0.998523 -0.0072183 0)
(0.998508 -0.0071184 0)
(0.998493 -0.00702221 0)
(0.998478 -0.00692977 0)
(0.998464 -0.00684109 0)
(1.00088 -0.000229885 0)
(1.00088 -0.000811875 0)
(1.00091 -0.00129121 0)
(1.00094 -0.00181258 0)
(1.00097 -0.0023232 0)
(1.00101 -0.00283433 0)
(1.00106 -0.0033512 0)
(1.00111 -0.0038739 0)
(1.00116 -0.00440275 0)
(1.00121 -0.00493757 0)
(1.00126 -0.0054774 0)
(1.00131 -0.00602076 0)
(1.00135 -0.00656566 0)
(1.00139 -0.00710971 0)
(1.00143 -0.00765018 0)
(1.00146 -0.00818411 0)
(1.00147 -0.00870835 0)
(1.00148 -0.00921969 0)
(1.00148 -0.00971493 0)
(1.00146 -0.010191 0)
(1.00144 -0.0106449 0)
(1.0014 -0.0110739 0)
(1.00135 -0.0114757 0)
(1.00129 -0.0118481 0)
(1.00122 -0.0121896 0)
(1.00113 -0.0124987 0)
(1.00104 -0.0127746 0)
(1.00094 -0.0130168 0)
(1.00083 -0.0132253 0)
(1.00071 -0.0134001 0)
(1.00059 -0.013542 0)
(1.00046 -0.0136518 0)
(1.00032 -0.0137306 0)
(1.00019 -0.0137799 0)
(1.00005 -0.0138012 0)
(0.999911 -0.0137962 0)
(0.999772 -0.0137666 0)
(0.999634 -0.0137142 0)
(0.999497 -0.0136407 0)
(0.999363 -0.0135479 0)
(0.999231 -0.0134375 0)
(0.999102 -0.0133114 0)
(0.998976 -0.0131714 0)
(0.998854 -0.0130195 0)
(0.998737 -0.0128575 0)
(0.998624 -0.0126874 0)
(0.998517 -0.012511 0)
(0.998417 -0.0123298 0)
(0.998326 -0.0121453 0)
(0.998246 -0.0119588 0)
(0.998175 -0.0117711 0)
(0.99811 -0.0115832 0)
(0.998048 -0.0113958 0)
(0.997985 -0.0112095 0)
(0.997918 -0.011025 0)
(0.997845 -0.0108429 0)
(0.997769 -0.0106639 0)
(0.997691 -0.0104882 0)
(0.997615 -0.0103163 0)
(0.997542 -0.0101484 0)
(0.997473 -0.00998467 0)
(0.997409 -0.00982536 0)
(0.997351 -0.00967058 0)
(0.997297 -0.00952046 0)
(0.997248 -0.00937511 0)
(0.997204 -0.00923461 0)
(0.997162 -0.00909901 0)
(0.997125 -0.00896838 0)
(0.99709 -0.00884281 0)
(1.00136 -0.000288656 0)
(1.00137 -0.00101378 0)
(1.00141 -0.00161463 0)
(1.00145 -0.00226779 0)
(1.0015 -0.00290411 0)
(1.00157 -0.00354114 0)
(1.00164 -0.00418446 0)
(1.00171 -0.00483398 0)
(1.00179 -0.00549041 0)
(1.00187 -0.00615368 0)
(1.00195 -0.00682273 0)
(1.00203 -0.00749585 0)
(1.0021 -0.00817078 0)
(1.00216 -0.0088447 0)
(1.00221 -0.0095144 0)
(1.00226 -0.0101763 0)
(1.00229 -0.0108266 0)
(1.0023 -0.0114615 0)
(1.0023 -0.0120769 0)
(1.00228 -0.012669 0)
(1.00224 -0.0132341 0)
(1.00219 -0.0137688 0)
(1.00211 -0.01427 0)
(1.00202 -0.0147349 0)
(1.00191 -0.0151614 0)
(1.00178 -0.0155476 0)
(1.00163 -0.0158923 0)
(1.00147 -0.0161946 0)
(1.0013 -0.0164543 0)
(1.00112 -0.0166715 0)
(1.00092 -0.0168469 0)
(1.00072 -0.0169814 0)
(1.00051 -0.0170765 0)
(1.00029 -0.0171338 0)
(1.00007 -0.0171552 0)
(0.999851 -0.0171429 0)
(0.99963 -0.0170991 0)
(0.999408 -0.0170263 0)
(0.999189 -0.016927 0)
(0.998972 -0.0168039 0)
(0.998759 -0.0166595 0)
(0.99855 -0.0164965 0)
(0.998346 -0.0163172 0)
(0.998147 -0.0161237 0)
(0.997954 -0.015918 0)
(0.997767 -0.0157018 0)
(0.997586 -0.0154766 0)
(0.997409 -0.0152438 0)
(0.997236 -0.015005 0)
(0.997065 -0.0147613 0)
(0.996897 -0.0145143 0)
(0.996734 -0.0142653 0)
(0.99658 -0.0140158 0)
(0.996437 -0.0137669 0)
(0.996308 -0.0135198 0)
(0.996194 -0.0132754 0)
(0.996092 -0.0130345 0)
(0.996002 -0.0127977 0)
(0.995919 -0.0125658 0)
(0.995841 -0.0123391 0)
(0.995767 -0.0121183 0)
(0.995697 -0.0119035 0)
(0.995629 -0.0116951 0)
(0.995563 -0.0114933 0)
(0.995501 -0.0112982 0)
(0.995441 -0.0111099 0)
(0.995384 -0.0109285 0)
(0.99533 -0.010754 0)
(0.995279 -0.0105865 0)
(1.00189 -0.000346932 0)
(1.00191 -0.00121402 0)
(1.00196 -0.00193738 0)
(1.00201 -0.00272112 0)
(1.00209 -0.00348124 0)
(1.00218 -0.00424248 0)
(1.00227 -0.00500978 0)
(1.00238 -0.00578307 0)
(1.00249 -0.0065636 0)
(1.0026 -0.00735141 0)
(1.00271 -0.00814541 0)
(1.00282 -0.00894381 0)
(1.00292 -0.00974417 0)
(1.00302 -0.0105434 0)
(1.0031 -0.0113379 0)
(1.00316 -0.0121237 0)
(1.0032 -0.0128964 0)
(1.00323 -0.0136515 0)
(1.00323 -0.0143845 0)
(1.00321 -0.0150908 0)
(1.00316 -0.015766 0)
(1.00308 -0.0164061 0)
(1.00298 -0.0170071 0)
(1.00285 -0.0175658 0)
(1.0027 -0.0180793 0)
(1.00252 -0.0185452 0)
(1.00232 -0.0189618 0)
(1.00209 -0.019328 0)
(1.00185 -0.0196431 0)
(1.00159 -0.0199072 0)
(1.00131 -0.0201208 0)
(1.00102 -0.020285 0)
(1.00072 -0.020401 0)
(1.00041 -0.0204709 0)
(1.00009 -0.0204967 0)
(0.99977 -0.0204809 0)
(0.999448 -0.020426 0)
(0.999127 -0.020335 0)
(0.998808 -0.0202105 0)
(0.998492 -0.0200553 0)
(0.998181 -0.0198724 0)
(0.997877 -0.0196643 0)
(0.997579 -0.0194341 0)
(0.99729 -0.0191844 0)
(0.99701 -0.0189183 0)
(0.996739 -0.0186385 0)
(0.996479 -0.0183477 0)
(0.996232 -0.0180487 0)
(0.995997 -0.0177437 0)
(0.995778 -0.0174348 0)
(0.995574 -0.0171238 0)
(0.995383 -0.0168121 0)
(0.995202 -0.016501 0)
(0.995026 -0.0161914 0)
(0.994853 -0.0158845 0)
(0.994682 -0.0155811 0)
(0.994512 -0.0152821 0)
(0.994347 -0.0149883 0)
(0.994189 -0.0147004 0)
(0.994039 -0.0144189 0)
(0.993899 -0.0141444 0)
(0.993767 -0.0138771 0)
(0.993646 -0.0136175 0)
(0.993532 -0.0133657 0)
(0.993427 -0.013122 0)
(0.99333 -0.0128866 0)
(0.993239 -0.0126595 0)
(0.993154 -0.0124408 0)
(0.993076 -0.0122307 0)
(1.00247 -0.000404909 0)
(1.0025 -0.00141122 0)
(1.00256 -0.00225509 0)
(1.00264 -0.00316684 0)
(1.00273 -0.00404816 0)
(1.00285 -0.00493121 0)
(1.00298 -0.00581977 0)
(1.00311 -0.00671402 0)
(1.00326 -0.00761585 0)
(1.00341 -0.0085254 0)
(1.00355 -0.0094417 0)
(1.0037 -0.010363 0)
(1.00383 -0.0112867 0)
(1.00396 -0.0122098 0)
(1.00407 -0.0131282 0)
(1.00415 -0.0140377 0)
(1.00422 -0.0149335 0)
(1.00426 -0.0158108 0)
(1.00426 -0.0166643 0)
(1.00424 -0.0174888 0)
(1.00418 -0.0182795 0)
(1.00409 -0.0190313 0)
(1.00396 -0.0197398 0)
(1.0038 -0.020401 0)
(1.0036 -0.0210113 0)
(1.00336 -0.0215678 0)
(1.0031 -0.022068 0)
(1.0028 -0.0225103 0)
(1.00248 -0.0228936 0)
(1.00213 -0.0232176 0)
(1.00176 -0.0234825 0)
(1.00137 -0.0236891 0)
(1.00096 -0.0238389 0)
(1.00054 -0.0239336 0)
(1.00011 -0.0239757 0)
(0.99968 -0.0239678 0)
(0.999242 -0.0239129 0)
(0.998804 -0.0238142 0)
(0.998367 -0.0236751 0)
(0.997935 -0.0234993 0)
(0.997508 -0.0232904 0)
(0.997089 -0.023052 0)
(0.996679 -0.0227878 0)
(0.99628 -0.0225011 0)
(0.995892 -0.0221948 0)
(0.995516 -0.0218717 0)
(0.995153 -0.0215344 0)
(0.994802 -0.021185 0)
(0.994462 -0.0208259 0)
(0.994132 -0.0204589 0)
(0.993813 -0.0200863 0)
(0.993505 -0.0197101 0)
(0.99321 -0.0193324 0)
(0.992934 -0.0189553 0)
(0.992678 -0.0185804 0)
(0.992443 -0.0182091 0)
(0.992227 -0.0178429 0)
(0.992028 -0.0174826 0)
(0.991843 -0.0171292 0)
(0.991669 -0.0167835 0)
(0.991504 -0.0164462 0)
(0.991348 -0.0161179 0)
(0.9912 -0.0157989 0)
(0.991059 -0.0154897 0)
(0.990926 -0.0151905 0)
(0.990799 -0.0149015 0)
(0.99068 -0.0146229 0)
(0.990568 -0.0143547 0)
(0.990462 -0.0140969 0)
(1.00312 -0.000461994 0)
(1.00315 -0.00160214 0)
(1.00322 -0.00256142 0)
(1.00332 -0.00359666 0)
(1.00344 -0.00459494 0)
(1.00358 -0.00559591 0)
(1.00374 -0.0066019 0)
(1.00392 -0.00761368 0)
(1.0041 -0.00863374 0)
(1.00429 -0.00966243 0)
(1.00447 -0.010699 0)
(1.00466 -0.0117417 0)
(1.00483 -0.0127883 0)
(1.00499 -0.0138355 0)
(1.00513 -0.0148793 0)
(1.00525 -0.0159152 0)
(1.00534 -0.0169382 0)
(1.00539 -0.0179429 0)
(1.00541 -0.0189238 0)
(1.00539 -0.019875 0)
(1.00533 -0.0207911 0)
(1.00522 -0.0216663 0)
(1.00507 -0.0224955 0)
(1.00487 -0.0232738 0)
(1.00462 -0.0239968 0)
(1.00433 -0.0246608 0)
(1.004 -0.0252627 0)
(1.00363 -0.0258 0)
(1.00322 -0.0262709 0)
(1.00277 -0.0266747 0)
(1.0023 -0.0270109 0)
(1.0018 -0.0272802 0)
(1.00128 -0.0274836 0)
(1.00074 -0.027623 0)
(1.00019 -0.0277005 0)
(0.999623 -0.027719 0)
(0.999054 -0.0276815 0)
(0.998484 -0.0275914 0)
(0.997915 -0.0274523 0)
(0.99735 -0.0272679 0)
(0.996793 -0.0270418 0)
(0.996245 -0.0267779 0)
(0.995709 -0.0264798 0)
(0.995187 -0.0261514 0)
(0.99468 -0.0257965 0)
(0.994189 -0.0254191 0)
(0.993716 -0.0250232 0)
(0.993261 -0.0246126 0)
(0.992827 -0.0241909 0)
(0.992414 -0.0237615 0)
(0.992024 -0.023327 0)
(0.991656 -0.02289 0)
(0.991306 -0.0224522 0)
(0.990971 -0.0220153 0)
(0.990647 -0.0215808 0)
(0.990334 -0.0211501 0)
(0.99003 -0.0207244 0)
(0.989739 -0.0203051 0)
(0.989461 -0.0198931 0)
(0.989198 -0.0194895 0)
(0.988952 -0.019095 0)
(0.988721 -0.0187104 0)
(0.988505 -0.018336 0)
(0.988304 -0.0179726 0)
(0.988116 -0.0176203 0)
(0.98794 -0.0172796 0)
(0.987776 -0.0169506 0)
(0.987623 -0.0166335 0)
(0.98748 -0.0163285 0)
(1.00381 -0.000517087 0)
(1.00385 -0.00178342 0)
(1.00394 -0.00285139 0)
(1.00405 -0.00400387 0)
(1.0042 -0.00511328 0)
(1.00438 -0.00622688 0)
(1.00457 -0.00734541 0)
(1.00478 -0.00847041 0)
(1.00501 -0.00960499 0)
(1.00524 -0.0107498 0)
(1.00547 -0.0119044 0)
(1.00569 -0.0130674 0)
(1.00591 -0.0142366 0)
(1.00611 -0.015409 0)
(1.00629 -0.0165804 0)
(1.00644 -0.0177464 0)
(1.00656 -0.0189019 0)
(1.00664 -0.020041 0)
(1.00668 -0.021158 0)
(1.00666 -0.0222465 0)
(1.0066 -0.0233003 0)
(1.00648 -0.0243131 0)
(1.0063 -0.0252789 0)
(1.00607 -0.026192 0)
(1.00578 -0.027047 0)
(1.00544 -0.0278393 0)
(1.00504 -0.0285647 0)
(1.00459 -0.02922 0)
(1.00409 -0.0298024 0)
(1.00355 -0.0303104 0)
(1.00297 -0.0307428 0)
(1.00235 -0.0310997 0)
(1.00171 -0.0313814 0)
(1.00104 -0.0315895 0)
(1.00035 -0.0317258 0)
(0.999648 -0.031793 0)
(0.998936 -0.0317941 0)
(0.99822 -0.0317327 0)
(0.997503 -0.0316127 0)
(0.996789 -0.0314384 0)
(0.996083 -0.0312143 0)
(0.995387 -0.0309452 0)
(0.994704 -0.0306359 0)
(0.994037 -0.030291 0)
(0.993387 -0.029915 0)
(0.992756 -0.029512 0)
(0.992146 -0.0290857 0)
(0.991556 -0.0286394 0)
(0.990988 -0.0281763 0)
(0.99044 -0.0276995 0)
(0.989911 -0.0272119 0)
(0.989402 -0.0267165 0)
(0.988916 -0.0262165 0)
(0.988455 -0.0257145 0)
(0.988022 -0.0252133 0)
(0.987617 -0.0247149 0)
(0.987241 -0.0242214 0)
(0.986889 -0.0237343 0)
(0.986559 -0.0232549 0)
(0.986249 -0.0227846 0)
(0.985956 -0.0223243 0)
(0.985679 -0.021875 0)
(0.985417 -0.0214374 0)
(0.98517 -0.0210123 0)
(0.984937 -0.0206001 0)
(0.984717 -0.0202011 0)
(0.98451 -0.0198157 0)
(0.984315 -0.0194442 0)
(0.984133 -0.0190866 0)
(1.00455 -0.000569214 0)
(1.00459 -0.00195283 0)
(1.0047 -0.00312235 0)
(1.00483 -0.00438482 0)
(1.00501 -0.00559854 0)
(1.00521 -0.00681859 0)
(1.00544 -0.00804399 0)
(1.00569 -0.00927715 0)
(1.00596 -0.0105219 0)
(1.00623 -0.0117792 0)
(1.00651 -0.013049 0)
(1.00679 -0.0143305 0)
(1.00705 -0.0156217 0)
(1.0073 -0.0169196 0)
(1.00752 -0.0182206 0)
(1.00771 -0.0195201 0)
(1.00787 -0.0208128 0)
(1.00798 -0.0220931 0)
(1.00804 -0.0233546 0)
(1.00804 -0.0245906 0)
(1.00798 -0.0257944 0)
(1.00786 -0.0269591 0)
(1.00767 -0.0280776 0)
(1.00741 -0.0291435 0)
(1.00709 -0.0301504 0)
(1.00669 -0.0310925 0)
(1.00623 -0.0319647 0)
(1.00571 -0.0327623 0)
(1.00513 -0.0334818 0)
(1.00449 -0.0341203 0)
(1.0038 -0.0346759 0)
(1.00307 -0.0351473 0)
(1.00229 -0.0355346 0)
(1.00149 -0.0358384 0)
(1.00065 -0.0360602 0)
(0.9998 -0.0362023 0)
(0.998932 -0.0362676 0)
(0.998055 -0.0362598 0)
(0.997175 -0.0361828 0)
(0.996297 -0.036041 0)
(0.995426 -0.0358389 0)
(0.994565 -0.035581 0)
(0.993719 -0.0352721 0)
(0.992892 -0.0349169 0)
(0.992085 -0.0345202 0)
(0.991302 -0.0340871 0)
(0.990545 -0.0336226 0)
(0.989814 -0.0331319 0)
(0.989113 -0.0326201 0)
(0.988443 -0.0320919 0)
(0.987805 -0.0315514 0)
(0.987199 -0.0310024 0)
(0.986623 -0.0304479 0)
(0.986073 -0.0298904 0)
(0.985546 -0.0293322 0)
(0.98504 -0.0287757 0)
(0.984553 -0.0282228 0)
(0.984088 -0.0276757 0)
(0.983645 -0.0271361 0)
(0.983226 -0.0266055 0)
(0.982831 -0.0260851 0)
(0.982461 -0.0255762 0)
(0.982114 -0.0250797 0)
(0.981788 -0.0245963 0)
(0.981484 -0.0241267 0)
(0.981199 -0.0236716 0)
(0.980932 -0.0232312 0)
(0.980682 -0.0228059 0)
(0.980448 -0.0223962 0)
(1.0053 -0.000617836 0)
(1.00536 -0.00210946 0)
(1.00548 -0.00337341 0)
(1.00563 -0.00473819 0)
(1.00584 -0.00604898 0)
(1.00607 -0.00736886 0)
(1.00634 -0.00869493 0)
(1.00663 -0.0100306 0)
(1.00695 -0.0113804 0)
(1.00727 -0.0127457 0)
(1.0076 -0.0141272 0)
(1.00792 -0.0155243 0)
(1.00824 -0.0169356 0)
(1.00854 -0.0183584 0)
(1.00881 -0.0197893 0)
(1.00905 -0.021224 0)
(1.00925 -0.0226574 0)
(1.0094 -0.0240835 0)
(1.00949 -0.0254961 0)
(1.00952 -0.0268881 0)
(1.00947 -0.0282522 0)
(1.00936 -0.0295809 0)
(1.00917 -0.0308666 0)
(1.0089 -0.0321017 0)
(1.00854 -0.0332788 0)
(1.00811 -0.0343911 0)
(1.0076 -0.035432 0)
(1.00701 -0.0363959 0)
(1.00635 -0.0372776 0)
(1.00561 -0.038073 0)
(1.00482 -0.038779 0)
(1.00396 -0.0393933 0)
(1.00306 -0.0399148 0)
(1.00211 -0.0403432 0)
(1.00113 -0.0406792 0)
(1.00012 -0.0409246 0)
(0.999084 -0.0410817 0)
(0.998036 -0.0411538 0)
(0.996981 -0.0411445 0)
(0.995924 -0.0410584 0)
(0.994872 -0.0409003 0)
(0.99383 -0.0406755 0)
(0.992802 -0.0403899 0)
(0.991794 -0.0400492 0)
(0.990809 -0.0396593 0)
(0.989849 -0.039226 0)
(0.988917 -0.0387544 0)
(0.988016 -0.0382494 0)
(0.987146 -0.0377155 0)
(0.986307 -0.0371569 0)
(0.985499 -0.0365779 0)
(0.984723 -0.0359824 0)
(0.983978 -0.0353749 0)
(0.983269 -0.0347595 0)
(0.982597 -0.0341398 0)
(0.981964 -0.0335194 0)
(0.981371 -0.0329009 0)
(0.980813 -0.0322868 0)
(0.980289 -0.0316793 0)
(0.979795 -0.0310803 0)
(0.979329 -0.0304915 0)
(0.978888 -0.0299144 0)
(0.978471 -0.0293504 0)
(0.978078 -0.0288005 0)
(0.977708 -0.0282657 0)
(0.97736 -0.0277467 0)
(0.977032 -0.0272441 0)
(0.976724 -0.0267585 0)
(0.976436 -0.0262901 0)
(1.00608 -0.000662756 0)
(1.00614 -0.00225311 0)
(1.00628 -0.0036044 0)
(1.00645 -0.00506365 0)
(1.00669 -0.00646411 0)
(1.00696 -0.00787686 0)
(1.00726 -0.00929696 0)
(1.0076 -0.0107289 0)
(1.00796 -0.0121779 0)
(1.00833 -0.0136461 0)
(1.00871 -0.0151344 0)
(1.0091 -0.0166431 0)
(1.00947 -0.0181711 0)
(1.00983 -0.0197163 0)
(1.01016 -0.0212756 0)
(1.01045 -0.0228451 0)
(1.0107 -0.0244199 0)
(1.0109 -0.0259942 0)
(1.01103 -0.0275616 0)
(1.01109 -0.0291151 0)
(1.01108 -0.0306469 0)
(1.01099 -0.032149 0)
(1.01081 -0.0336131 0)
(1.01053 -0.0350309 0)
(1.01016 -0.0363939 0)
(1.0097 -0.0376941 0)
(1.00915 -0.0389237 0)
(1.0085 -0.0400756 0)
(1.00777 -0.0411432 0)
(1.00695 -0.042121 0)
(1.00605 -0.0430043 0)
(1.00508 -0.0437894 0)
(1.00405 -0.0444738 0)
(1.00296 -0.045056 0)
(1.00182 -0.0455356 0)
(1.00065 -0.0459132 0)
(0.99944 -0.0461907 0)
(0.998211 -0.0463705 0)
(0.996968 -0.0464564 0)
(0.995718 -0.0464525 0)
(0.99447 -0.0463636 0)
(0.99323 -0.0461952 0)
(0.992003 -0.0459525 0)
(0.990797 -0.0456414 0)
(0.989615 -0.0452676 0)
(0.988462 -0.044837 0)
(0.987342 -0.0443561 0)
(0.986257 -0.0438313 0)
(0.985211 -0.0432691 0)
(0.984206 -0.0426759 0)
(0.983245 -0.0420578 0)
(0.982327 -0.04142 0)
(0.981453 -0.040767 0)
(0.980619 -0.0401029 0)
(0.979822 -0.0394312 0)
(0.979059 -0.0387553 0)
(0.978327 -0.0380786 0)
(0.977627 -0.0374042 0)
(0.976962 -0.036735 0)
(0.976332 -0.0360734 0)
(0.975737 -0.0354215 0)
(0.975177 -0.0347812 0)
(0.974651 -0.034154 0)
(0.974157 -0.0335413 0)
(0.973693 -0.0329441 0)
(0.973259 -0.0323634 0)
(0.972852 -0.0318001 0)
(0.97247 -0.0312548 0)
(0.972113 -0.0307281 0)
(1.00686 -0.000703963 0)
(1.00694 -0.0023839 0)
(1.00709 -0.00381533 0)
(1.00729 -0.00536109 0)
(1.00755 -0.0068437 0)
(1.00785 -0.00834207 0)
(1.0082 -0.00984913 0)
(1.00858 -0.0113705 0)
(1.00899 -0.0129123 0)
(1.00942 -0.0144769 0)
(1.00986 -0.0160662 0)
(1.0103 -0.017681 0)
(1.01073 -0.0193207 0)
(1.01115 -0.0209839 0)
(1.01155 -0.0226681 0)
(1.0119 -0.0243696 0)
(1.01221 -0.0260841 0)
(1.01247 -0.027806 0)
(1.01266 -0.0295291 0)
(1.01277 -0.0312462 0)
(1.0128 -0.0329497 0)
(1.01274 -0.034631 0)
(1.01258 -0.0362815 0)
(1.01232 -0.037892 0)
(1.01195 -0.0394531 0)
(1.01147 -0.0409558 0)
(1.01089 -0.0423909 0)
(1.0102 -0.0437499 0)
(1.0094 -0.0450248 0)
(1.00851 -0.0462082 0)
(1.00752 -0.0472939 0)
(1.00644 -0.0482765 0)
(1.00528 -0.0491517 0)
(1.00406 -0.0499165 0)
(1.00276 -0.0505691 0)
(1.00142 -0.051109 0)
(1.00004 -0.0515368 0)
(0.998619 -0.0518543 0)
(0.997178 -0.0520642 0)
(0.995724 -0.0521702 0)
(0.994266 -0.052177 0)
(0.992812 -0.0520898 0)
(0.991369 -0.0519147 0)
(0.989945 -0.0516582 0)
(0.988545 -0.0513274 0)
(0.987176 -0.0509293 0)
(0.985841 -0.0504709 0)
(0.984544 -0.0499589 0)
(0.983288 -0.0493994 0)
(0.982075 -0.048798 0)
(0.980905 -0.0481606 0)
(0.979778 -0.0474926 0)
(0.978695 -0.0467999 0)
(0.977658 -0.0460882 0)
(0.976671 -0.0453631 0)
(0.975737 -0.0446295 0)
(0.974857 -0.0438915 0)
(0.974027 -0.0431527 0)
(0.973246 -0.0424164 0)
(0.972508 -0.0416856 0)
(0.97181 -0.0409628 0)
(0.971152 -0.0402507 0)
(0.970529 -0.0395512 0)
(0.969942 -0.0388664 0)
(0.969389 -0.0381978 0)
(0.968868 -0.0375467 0)
(0.968378 -0.0369141 0)
(0.967918 -0.036301 0)
(0.967486 -0.0357082 0)
(1.00765 -0.000741553 0)
(1.00773 -0.00250212 0)
(1.00789 -0.00400638 0)
(1.00812 -0.00563062 0)
(1.00841 -0.00718777 0)
(1.00875 -0.00876427 0)
(1.00914 -0.0103509 0)
(1.00957 -0.0119544 0)
(1.01003 -0.0135816 0)
(1.01051 -0.0152356 0)
(1.01101 -0.016919 0)
(1.01152 -0.0186331 0)
(1.01202 -0.0203782 0)
(1.01251 -0.0221533 0)
(1.01297 -0.0239566 0)
(1.0134 -0.0257852 0)
(1.01378 -0.027635 0)
(1.0141 -0.0295012 0)
(1.01435 -0.0313776 0)
(1.01452 -0.0332575 0)
(1.01461 -0.0351331 0)
(1.01459 -0.0369959 0)
(1.01447 -0.0388368 0)
(1.01424 -0.0406462 0)
(1.01389 -0.0424139 0)
(1.01341 -0.0441298 0)
(1.01282 -0.0457837 0)
(1.0121 -0.0473656 0)
(1.01126 -0.0488659 0)
(1.0103 -0.0502756 0)
(1.00923 -0.0515865 0)
(1.00805 -0.0527914 0)
(1.00678 -0.0538842 0)
(1.00542 -0.05486 0)
(1.00398 -0.0557152 0)
(1.00247 -0.0564477 0)
(1.0009 -0.0570565 0)
(0.999294 -0.0575422 0)
(0.99765 -0.0579065 0)
(0.995982 -0.0581523 0)
(0.994301 -0.0582837 0)
(0.992619 -0.0583057 0)
(0.990943 -0.0582241 0)
(0.989283 -0.0580451 0)
(0.987647 -0.0577752 0)
(0.986041 -0.0574213 0)
(0.984473 -0.0569909 0)
(0.982947 -0.0564915 0)
(0.981468 -0.0559312 0)
(0.980039 -0.0553184 0)
(0.978665 -0.054661 0)
(0.977348 -0.0539665 0)
(0.97609 -0.0532415 0)
(0.974888 -0.0524917 0)
(0.97374 -0.0517224 0)
(0.97264 -0.0509385 0)
(0.971587 -0.050145 0)
(0.97058 -0.0493467 0)
(0.96962 -0.048548 0)
(0.96871 -0.0477527 0)
(0.967849 -0.0469641 0)
(0.967037 -0.0461851 0)
(0.966274 -0.0454182 0)
(0.965555 -0.0446654 0)
(0.964881 -0.0439288 0)
(0.964247 -0.0432097 0)
(0.963653 -0.0425097 0)
(0.963096 -0.04183 0)
(0.962573 -0.0411716 0)
(1.00842 -0.000775659 0)
(1.00851 -0.00260821 0)
(1.0087 -0.00417794 0)
(1.00894 -0.00587272 0)
(1.00926 -0.00749684 0)
(1.00964 -0.00914387 0)
(1.01007 -0.0108024 0)
(1.01055 -0.0124804 0)
(1.01106 -0.0141853 0)
(1.01161 -0.015921 0)
(1.01217 -0.0176906 0)
(1.01274 -0.0194963 0)
(1.01331 -0.0213389 0)
(1.01387 -0.0232184 0)
(1.01441 -0.0251336 0)
(1.01492 -0.0270822 0)
(1.01537 -0.0290609 0)
(1.01577 -0.0310653 0)
(1.0161 -0.03309 0)
(1.01634 -0.0351286 0)
(1.01649 -0.0371735 0)
(1.01654 -0.0392165 0)
(1.01647 -0.0412482 0)
(1.01628 -0.0432587 0)
(1.01596 -0.0452375 0)
(1.01551 -0.0471736 0)
(1.01492 -0.0490557 0)
(1.01419 -0.0508725 0)
(1.01332 -0.052613 0)
(1.01232 -0.0542665 0)
(1.01119 -0.0558228 0)
(1.00993 -0.0572729 0)
(1.00855 -0.0586083 0)
(1.00707 -0.0598223 0)
(1.00548 -0.0609091 0)
(1.00381 -0.0618644 0)
(1.00207 -0.0626857 0)
(1.00027 -0.0633717 0)
(0.998415 -0.0639227 0)
(0.996527 -0.0643405 0)
(0.994615 -0.0646282 0)
(0.992691 -0.06479 0)
(0.990768 -0.0648314 0)
(0.988855 -0.0647587 0)
(0.986963 -0.0645793 0)
(0.9851 -0.0643011 0)
(0.983273 -0.0639326 0)
(0.981489 -0.0634821 0)
(0.979754 -0.0629575 0)
(0.978072 -0.0623665 0)
(0.976444 -0.0617164 0)
(0.974871 -0.0610146 0)
(0.973355 -0.0602686 0)
(0.971898 -0.0594862 0)
(0.970506 -0.0586754 0)
(0.969182 -0.057843 0)
(0.967929 -0.0569953 0)
(0.966746 -0.0561374 0)
(0.96563 -0.0552741 0)
(0.964575 -0.0544098 0)
(0.963577 -0.0535484 0)
(0.962634 -0.0526939 0)
(0.961742 -0.0518496 0)
(0.9609 -0.0510186 0)
(0.960106 -0.0502033 0)
(0.959359 -0.049406 0)
(0.958655 -0.0486285 0)
(0.957994 -0.0478724 0)
(0.957374 -0.047139 0)
(1.00919 -0.000806393 0)
(1.00929 -0.00270263 0)
(1.00949 -0.0043307 0)
(1.00976 -0.00608831 0)
(1.01011 -0.00777197 0)
(1.01053 -0.00948199 0)
(1.011 -0.0112047 0)
(1.01153 -0.0129493 0)
(1.01209 -0.014724 0)
(1.01269 -0.0165332 0)
(1.01332 -0.0183807 0)
(1.01396 -0.0202695 0)
(1.01461 -0.0222011 0)
(1.01525 -0.0241763 0)
(1.01586 -0.0261946 0)
(1.01645 -0.0282546 0)
(1.01699 -0.0303538 0)
(1.01747 -0.0324885 0)
(1.01789 -0.0346541 0)
(1.01821 -0.0368446 0)
(1.01844 -0.0390531 0)
(1.01856 -0.0412716 0)
(1.01856 -0.043491 0)
(1.01843 -0.0457014 0)
(1.01817 -0.047892 0)
(1.01775 -0.0500512 0)
(1.01719 -0.052167 0)
(1.01647 -0.0542271 0)
(1.01559 -0.056219 0)
(1.01457 -0.0581304 0)
(1.01339 -0.0599494 0)
(1.01206 -0.0616648 0)
(1.0106 -0.063266 0)
(1.00901 -0.0647438 0)
(1.00729 -0.0660902 0)
(1.00548 -0.0672986 0)
(1.00356 -0.0683642 0)
(1.00157 -0.0692835 0)
(0.999507 -0.070055 0)
(0.997394 -0.0706788 0)
(0.995244 -0.0711564 0)
(0.99307 -0.0714911 0)
(0.990886 -0.0716873 0)
(0.988705 -0.0717509 0)
(0.986539 -0.0716884 0)
(0.984398 -0.0715071 0)
(0.982293 -0.071215 0)
(0.980231 -0.0708207 0)
(0.978222 -0.0703336 0)
(0.97627 -0.0697635 0)
(0.974383 -0.0691209 0)
(0.972565 -0.0684157 0)
(0.970822 -0.0676571 0)
(0.969154 -0.0668534 0)
(0.967558 -0.0660116 0)
(0.966029 -0.0651388 0)
(0.964563 -0.0642418 0)
(0.963159 -0.0633277 0)
(0.961819 -0.0624031 0)
(0.960545 -0.0614737 0)
(0.959339 -0.0605447 0)
(0.958199 -0.0596203 0)
(0.957126 -0.0587043 0)
(0.956116 -0.0578 0)
(0.955165 -0.0569105 0)
(0.954273 -0.0560383 0)
(0.953434 -0.0551856 0)
(0.952647 -0.0543546 0)
(0.951909 -0.0535468 0)
(1.00995 -0.000833855 0)
(1.01006 -0.00278594 0)
(1.01027 -0.00446564 0)
(1.01056 -0.00627875 0)
(1.01094 -0.0080148 0)
(1.0114 -0.00978047 0)
(1.01191 -0.0115599 0)
(1.01249 -0.0133634 0)
(1.01311 -0.0151999 0)
(1.01377 -0.0170743 0)
(1.01446 -0.0189912 0)
(1.01517 -0.0209541 0)
(1.01589 -0.0229656 0)
(1.01661 -0.0250271 0)
(1.01731 -0.027139 0)
(1.01799 -0.0293007 0)
(1.01862 -0.0315107 0)
(1.01919 -0.0337661 0)
(1.0197 -0.0360631 0)
(1.02012 -0.0383966 0)
(1.02044 -0.0407604 0)
(1.02065 -0.0431472 0)
(1.02073 -0.0455482 0)
(1.02068 -0.0479539 0)
(1.02048 -0.0503535 0)
(1.02012 -0.0527351 0)
(1.0196 -0.0550864 0)
(1.01891 -0.0573942 0)
(1.01806 -0.059645 0)
(1.01702 -0.0618249 0)
(1.01582 -0.0639205 0)
(1.01446 -0.0659183 0)
(1.01293 -0.0678057 0)
(1.01124 -0.0695711 0)
(1.00942 -0.0712039 0)
(1.00746 -0.0726949 0)
(1.00539 -0.0740364 0)
(1.00321 -0.0752228 0)
(1.00095 -0.0762499 0)
(0.998614 -0.0771156 0)
(0.996222 -0.0778198 0)
(0.993791 -0.078364 0)
(0.991337 -0.0787514 0)
(0.988874 -0.078987 0)
(0.986417 -0.0790772 0)
(0.983978 -0.0790296 0)
(0.981571 -0.0788532 0)
(0.979205 -0.0785573 0)
(0.97689 -0.0781518 0)
(0.974633 -0.077646 0)
(0.972441 -0.0770492 0)
(0.970315 -0.0763703 0)
(0.968258 -0.075619 0)
(0.966274 -0.0748053 0)
(0.964368 -0.0739398 0)
(0.962548 -0.0730325 0)
(0.96082 -0.0720923 0)
(0.959185 -0.0711268 0)
(0.95764 -0.0701426 0)
(0.956179 -0.069146 0)
(0.954796 -0.068143 0)
(0.953487 -0.0671394 0)
(0.952248 -0.0661403 0)
(0.951078 -0.0651505 0)
(0.949974 -0.0641738 0)
(0.948934 -0.0632139 0)
(0.947955 -0.0622735 0)
(0.947034 -0.0613554 0)
(0.94617 -0.0604618 0)
(1.01069 -0.000858212 0)
(1.01081 -0.00285887 0)
(1.01104 -0.00458398 0)
(1.01135 -0.00644574 0)
(1.01176 -0.00822746 0)
(1.01225 -0.0100418 0)
(1.01281 -0.0118708 0)
(1.01343 -0.0137258 0)
(1.01411 -0.0156163 0)
(1.01483 -0.0175477 0)
(1.01559 -0.0195254 0)
(1.01637 -0.0215537 0)
(1.01716 -0.0236357 0)
(1.01796 -0.0257738 0)
(1.01875 -0.0279692 0)
(1.01952 -0.0302223 0)
(1.02024 -0.0325325 0)
(1.02091 -0.0348978 0)
(1.02152 -0.0373156 0)
(1.02204 -0.0397816 0)
(1.02246 -0.0422906 0)
(1.02277 -0.0448361 0)
(1.02295 -0.0474101 0)
(1.02299 -0.0500036 0)
(1.02287 -0.0526061 0)
(1.0226 -0.0552062 0)
(1.02214 -0.0577911 0)
(1.02151 -0.0603473 0)
(1.02069 -0.0628605 0)
(1.01968 -0.0653158 0)
(1.01848 -0.0676981 0)
(1.01709 -0.0699922 0)
(1.01552 -0.0721834 0)
(1.01377 -0.0742576 0)
(1.01186 -0.0762014 0)
(1.00978 -0.0780029 0)
(1.00757 -0.0796516 0)
(1.00522 -0.0811388 0)
(1.00276 -0.0824575 0)
(1.00021 -0.0836029 0)
(0.997581 -0.0845723 0)
(0.994891 -0.085365 0)
(0.99216 -0.0859823 0)
(0.989405 -0.0864274 0)
(0.986643 -0.0867054 0)
(0.98389 -0.0868225 0)
(0.981161 -0.0867863 0)
(0.97847 -0.0866056 0)
(0.975828 -0.0862901 0)
(0.973246 -0.0858512 0)
(0.970734 -0.0853009 0)
(0.968302 -0.0846521 0)
(0.965957 -0.0839173 0)
(0.963706 -0.0831076 0)
(0.961549 -0.082233 0)
(0.95948 -0.0813025 0)
(0.957493 -0.0803255 0)
(0.955586 -0.0793116 0)
(0.95376 -0.0782704 0)
(0.952021 -0.0772105 0)
(0.950371 -0.0761396 0)
(0.948811 -0.075064 0)
(0.94734 -0.0739895 0)
(0.945954 -0.072921 0)
(0.944651 -0.0718632 0)
(0.943425 -0.0708201 0)
(0.942274 -0.0697952 0)
(0.941193 -0.0687918 0)
(0.940179 -0.0678128 0)
(1.0114 -0.000879719 0)
(1.01153 -0.00292231 0)
(1.01178 -0.00468714 0)
(1.01211 -0.00659122 0)
(1.01255 -0.0084124 0)
(1.01308 -0.010269 0)
(1.01368 -0.0121407 0)