/*--------------------------------*- C++ -*----------------------------------*\
  =========                 |
  \\      /  F ield         | OpenFOAM: The Open Source CFD Toolbox
   \\    /   O peration     | Website:  https://openfoam.org
    \\  /    A nd           | Version:  10
     \\/     M anipulation  |
\*---------------------------------------------------------------------------*/
FoamFile
{
    format      ascii;
    class       volVectorField;
    location    "450";
    object      U;
}
// * * * * * * * * * * * * * * * * * * * * * * * * * * * * * * * * * * * * * //

dimensions      [0 1 -1 0 0 0 0];

internalField   nonuniform List<vector> 
66268
(
(0.999999 -4.37128e-05 0)
(0.999999 -0.000159869 0)
(0.999999 -0.000254398 0)
(0.999999 -0.000353289 0)
(0.999999 -0.000449444 0)
(0.999999 -0.00054337 0)
(0.999999 -0.000635756 0)
(0.999999 -0.000726688 0)
(0.999999 -0.000816105 0)
(0.999999 -0.00090393 0)
(0.999999 -0.00099003 0)
(0.999999 -0.00107421 0)
(0.999998 -0.00115624 0)
(0.999998 -0.00123585 0)
(0.999998 -0.00131275 0)
(0.999998 -0.00138662 0)
(0.999998 -0.00145716 0)
(0.999998 -0.00152405 0)
(0.999998 -0.00158699 0)
(0.999998 -0.00164572 0)
(0.999998 -0.00169998 0)
(0.999998 -0.00174956 0)
(0.999997 -0.0017943 0)
(0.999997 -0.00183406 0)
(0.999997 -0.00186877 0)
(0.999997 -0.00189839 0)
(0.999997 -0.00192294 0)
(0.999997 -0.00194249 0)
(0.999997 -0.00195715 0)
(0.999997 -0.00196706 0)
(0.999997 -0.00197241 0)
(0.999997 -0.00197341 0)
(0.999997 -0.00197031 0)
(0.999997 -0.00196337 0)
(0.999997 -0.00195289 0)
(0.999997 -0.00193916 0)
(0.999997 -0.00192253 0)
(0.999996 -0.00190328 0)
(0.999996 -0.00188174 0)
(0.999996 -0.00185817 0)
(0.999996 -0.00183281 0)
(0.999996 -0.00180589 0)
(0.999995 -0.00177757 0)
(0.999995 -0.00174802 0)
(0.999994 -0.00171737 0)
(0.999993 -0.00168577 0)
(0.999991 -0.00165336 0)
(0.999988 -0.00162027 0)
(0.999984 -0.00158664 0)
(0.999978 -0.00155263 0)
(0.999971 -0.00151843 0)
(0.999963 -0.00148422 0)
(0.999955 -0.00145022 0)
(0.999949 -0.00141662 0)
(0.999946 -0.0013836 0)
(0.999945 -0.00135129 0)
(0.999947 -0.0013198 0)
(0.999951 -0.00128921 0)
(0.999956 -0.00125959 0)
(0.999961 -0.00123097 0)
(0.999967 -0.00120337 0)
(0.999972 -0.00117682 0)
(0.999977 -0.0011513 0)
(0.999981 -0.00112683 0)
(0.999984 -0.00110338 0)
(0.999987 -0.00108094 0)
(0.999989 -0.00105948 0)
(0.999991 -0.00103902 0)
(0.999993 -0.00101955 0)
(1.00019 -0.000136702 0)
(1.00019 -0.000492489 0)
(1.00019 -0.00078149 0)
(1.00019 -0.00108685 0)
(1.0002 -0.00138249 0)
(1.0002 -0.00167094 0)
(1.00021 -0.00195474 0)
(1.00021 -0.00223387 0)
(1.00021 -0.00250816 0)
(1.00022 -0.00277738 0)
(1.00022 -0.00304113 0)
(1.00022 -0.00329883 0)
(1.00023 -0.00354978 0)
(1.00023 -0.00379317 0)
(1.00023 -0.00402815 0)
(1.00023 -0.00425379 0)
(1.00023 -0.00446918 0)
(1.00022 -0.00467341 0)
(1.00022 -0.00486561 0)
(1.00021 -0.005045 0)
(1.0002 -0.00521084 0)
(1.00019 -0.00536254 0)
(1.00018 -0.00549961 0)
(1.00017 -0.0056217 0)
(1.00015 -0.00572858 0)
(1.00013 -0.00582019 0)
(1.00012 -0.00589658 0)
(1.0001 -0.00595796 0)
(1.00007 -0.00600472 0)
(1.00005 -0.00603734 0)
(1.00003 -0.00605636 0)
(1 -0.00606241 0)
(0.999979 -0.00605616 0)
(0.999954 -0.00603836 0)
(0.999929 -0.00600979 0)
(0.999903 -0.00597123 0)
(0.999878 -0.00592346 0)
(0.999852 -0.00586726 0)
(0.999827 -0.00580341 0)
(0.999803 -0.00573271 0)
(0.999778 -0.00565601 0)
(0.999754 -0.00557415 0)
(0.999731 -0.00548803 0)
(0.999707 -0.0053985 0)
(0.999684 -0.00530639 0)
(0.999662 -0.00521246 0)
(0.999641 -0.00511739 0)
(0.999621 -0.00502177 0)
(0.999603 -0.0049261 0)
(0.999587 -0.00483082 0)
(0.999573 -0.00473626 0)
(0.99956 -0.00464266 0)
(0.999549 -0.00455021 0)
(0.999537 -0.00445906 0)
(0.999525 -0.00436933 0)
(0.999511 -0.00428114 0)
(0.999496 -0.0041946 0)
(0.99948 -0.00410983 0)
(0.999463 -0.00402694 0)
(0.999447 -0.00394604 0)
(0.999432 -0.00386722 0)
(0.999417 -0.00379056 0)
(0.999404 -0.00371613 0)
(0.999392 -0.00364398 0)
(0.999381 -0.00357416 0)
(0.999371 -0.00350671 0)
(0.999362 -0.00344164 0)
(0.999353 -0.00337897 0)
(0.999346 -0.0033188 0)
(1.0006 -0.000232709 0)
(1.00059 -0.000826534 0)
(1.0006 -0.00130856 0)
(1.00061 -0.00182284 0)
(1.00062 -0.00231774 0)
(1.00063 -0.00280023 0)
(1.00064 -0.00327482 0)
(1.00065 -0.00374099 0)
(1.00067 -0.00419848 0)
(1.00068 -0.00464697 0)
(1.00069 -0.00508574 0)
(1.00069 -0.00551383 0)
(1.0007 -0.0059301 0)
(1.0007 -0.00633323 0)
(1.0007 -0.00672182 0)
(1.0007 -0.00709441 0)
(1.00069 -0.00744952 0)
(1.00068 -0.0077857 0)
(1.00066 -0.00810159 0)
(1.00064 -0.00839592 0)
(1.00061 -0.00866756 0)
(1.00057 -0.00891558 0)
(1.00054 -0.00913923 0)
(1.00049 -0.00933796 0)
(1.00044 -0.00951147 0)
(1.00039 -0.00965967 0)
(1.00033 -0.00978269 0)
(1.00027 -0.00988087 0)
(1.00021 -0.00995483 0)
(1.00014 -0.0100053 0)
(1.00007 -0.0100333 0)
(1 -0.0100397 0)
(0.999928 -0.0100256 0)
(0.999855 -0.00999244 0)
(0.999781 -0.00994139 0)
(0.999707 -0.00987389 0)
(0.999633 -0.00979141 0)
(0.99956 -0.00969547 0)
(0.999488 -0.00958759 0)
(0.999417 -0.00946926 0)
(0.999347 -0.00934188 0)
(0.999279 -0.00920673 0)
(0.999213 -0.00906495 0)
(0.999149 -0.00891758 0)
(0.999087 -0.00876553 0)
(0.999027 -0.00860967 0)
(0.998969 -0.0084508 0)
(0.998913 -0.0082897 0)
(0.998859 -0.00812713 0)
(0.998806 -0.00796381 0)
(0.998754 -0.00780046 0)
(0.998704 -0.00763776 0)
(0.998657 -0.00747634 0)
(0.998613 -0.00731679 0)
(0.998573 -0.00715963 0)
(0.998538 -0.00700531 0)
(0.998506 -0.00685419 0)
(0.998478 -0.00670659 0)
(0.998454 -0.00656277 0)
(0.998431 -0.00642294 0)
(0.99841 -0.00628726 0)
(0.998391 -0.00615585 0)
(0.998373 -0.00602882 0)
(0.998355 -0.00590623 0)
(0.998339 -0.0057881 0)
(0.998323 -0.00567445 0)
(0.998307 -0.00556525 0)
(0.998293 -0.00546053 0)
(0.998279 -0.00536026 0)
(1.00116 -0.000327523 0)
(1.00116 -0.00115217 0)
(1.00118 -0.00182391 0)
(1.00119 -0.00254373 0)
(1.00121 -0.00323244 0)
(1.00123 -0.00390418 0)
(1.00125 -0.00456446 0)
(1.00127 -0.00521208 0)
(1.00129 -0.00584687 0)
(1.00131 -0.00646836 0)
(1.00133 -0.00707554 0)
(1.00134 -0.00766705 0)
(1.00135 -0.00824133 0)
(1.00135 -0.00879659 0)
(1.00135 -0.00933093 0)
(1.00133 -0.00984237 0)
(1.00131 -0.0103289 0)
(1.00128 -0.0107886 0)
(1.00125 -0.0112197 0)
(1.0012 -0.0116204 0)
(1.00114 -0.0119893 0)
(1.00107 -0.012325 0)
(1.001 -0.0126267 0)
(1.00091 -0.0128937 0)
(1.00082 -0.0131254 0)
(1.00071 -0.0133219 0)
(1.0006 -0.0134833 0)
(1.00049 -0.0136101 0)
(1.00036 -0.0137031 0)
(1.00023 -0.0137634 0)
(1.0001 -0.0137923 0)
(0.999965 -0.0137912 0)
(0.999827 -0.0137617 0)
(0.999687 -0.0137056 0)
(0.999547 -0.0136247 0)
(0.999407 -0.013521 0)
(0.999268 -0.0133964 0)
(0.999131 -0.0132528 0)
(0.998996 -0.0130921 0)
(0.998864 -0.012916 0)
(0.998735 -0.0127264 0)
(0.99861 -0.012525 0)
(0.998489 -0.0123135 0)
(0.998372 -0.0120937 0)
(0.998259 -0.0118674 0)
(0.99815 -0.0116361 0)
(0.998047 -0.0114015 0)
(0.997948 -0.011165 0)
(0.997854 -0.0109279 0)
(0.997766 -0.0106913 0)
(0.997683 -0.0104562 0)
(0.997606 -0.0102235 0)
(0.997532 -0.00999376 0)
(0.997462 -0.00976752 0)
(0.997395 -0.00954525 0)
(0.997329 -0.00932731 0)
(0.997265 -0.00911407 0)
(0.997202 -0.00890582 0)
(0.997142 -0.00870285 0)
(0.997085 -0.00850538 0)
(0.99703 -0.0083136 0)
(0.996979 -0.00812766 0)
(0.996932 -0.00794769 0)
(0.996887 -0.00777378 0)
(0.996846 -0.00760597 0)
(0.996807 -0.00744429 0)
(0.996772 -0.00728874 0)
(0.996738 -0.00713933 0)
(0.996708 -0.00699607 0)
(1.00184 -0.000418192 0)
(1.00185 -0.00146325 0)
(1.00187 -0.00231994 0)
(1.00189 -0.00323759 0)
(1.00192 -0.00411159 0)
(1.00195 -0.00496525 0)
(1.00198 -0.00580356 0)
(1.00201 -0.0066248 0)
(1.00204 -0.007429 0)
(1.00207 -0.00821556 0)
(1.0021 -0.00898314 0)
(1.00211 -0.00973004 0)
(1.00212 -0.0104543 0)
(1.00212 -0.0111536 0)
(1.00211 -0.0118257 0)
(1.00209 -0.0124681 0)
(1.00206 -0.0130784 0)
(1.00201 -0.013654 0)
(1.00195 -0.0141928 0)
(1.00187 -0.0146926 0)
(1.00178 -0.0151517 0)
(1.00167 -0.0155685 0)
(1.00155 -0.0159417 0)
(1.00141 -0.0162704 0)
(1.00126 -0.0165542 0)
(1.0011 -0.016793 0)
(1.00092 -0.0169869 0)
(1.00074 -0.0171367 0)
(1.00054 -0.0172433 0)
(1.00034 -0.0173079 0)
(1.00013 -0.0173323 0)
(0.999909 -0.0173182 0)
(0.99969 -0.0172677 0)
(0.999468 -0.0171829 0)
(0.999244 -0.0170663 0)
(0.999022 -0.0169201 0)
(0.9988 -0.016747 0)
(0.998581 -0.0165494 0)
(0.998365 -0.01633 0)
(0.998153 -0.0160914 0)
(0.997946 -0.0158361 0)
(0.997743 -0.0155667 0)
(0.997547 -0.0152855 0)
(0.997356 -0.0149947 0)
(0.997172 -0.0146961 0)
(0.996994 -0.0143916 0)
(0.996823 -0.0140829 0)
(0.996659 -0.0137714 0)
(0.996501 -0.0134585 0)
(0.99635 -0.0131455 0)
(0.996204 -0.0128336 0)
(0.996066 -0.0125239 0)
(0.995933 -0.0122175 0)
(0.995807 -0.0119153 0)
(0.995689 -0.011618 0)
(0.995579 -0.0113265 0)
(0.995477 -0.0110412 0)
(0.995381 -0.0107628 0)
(0.995293 -0.0104915 0)
(0.99521 -0.0102278 0)
(0.995133 -0.00997183 0)
(0.99506 -0.00972387 0)
(0.994991 -0.00948407 0)
(0.994927 -0.00925253 0)
(0.994867 -0.00902929 0)
(0.99481 -0.00881439 0)
(0.994756 -0.00860781 0)
(0.994706 -0.00840953 0)
(0.994658 -0.00821953 0)
(1.00261 -0.0005044 0)
(1.00262 -0.00175847 0)
(1.00265 -0.00279315 0)
(1.00268 -0.00389913 0)
(1.00272 -0.00494914 0)
(1.00276 -0.00597649 0)
(1.0028 -0.00698444 0)
(1.00285 -0.00797106 0)
(1.00289 -0.00893671 0)
(1.00293 -0.00988058 0)
(1.00297 -0.010801 0)
(1.00299 -0.0116961 0)
(1.003 -0.0125634 0)
(1.003 -0.0134003 0)
(1.00299 -0.014204 0)
(1.00296 -0.0149717 0)
(1.00291 -0.0157004 0)
(1.00284 -0.0163872 0)
(1.00276 -0.0170296 0)
(1.00265 -0.017625 0)
(1.00251 -0.0181712 0)
(1.00236 -0.0186665 0)
(1.00219 -0.0191092 0)
(1.00199 -0.0194983 0)
(1.00178 -0.0198332 0)
(1.00154 -0.0201137 0)
(1.00129 -0.0203399 0)
(1.00102 -0.0205127 0)
(1.00074 -0.0206329 0)
(1.00045 -0.0207022 0)
(1.00014 -0.0207223 0)
(0.999828 -0.0206955 0)
(0.99951 -0.0206241 0)
(0.999188 -0.0205108 0)
(0.998863 -0.0203584 0)
(0.998538 -0.02017 0)
(0.998214 -0.0199486 0)
(0.997893 -0.0196973 0)
(0.997576 -0.0194191 0)
(0.997265 -0.0191171 0)
(0.99696 -0.0187942 0)
(0.996662 -0.0184532 0)
(0.996373 -0.0180967 0)
(0.996094 -0.0177274 0)
(0.995824 -0.0173479 0)
(0.995564 -0.0169606 0)
(0.995314 -0.0165678 0)
(0.995076 -0.0161719 0)
(0.994849 -0.0157746 0)
(0.994634 -0.0153779 0)
(0.994431 -0.0149833 0)
(0.994239 -0.0145923 0)
(0.994057 -0.0142059 0)
(0.993884 -0.0138251 0)
(0.99372 -0.0134509 0)
(0.993563 -0.0130839 0)
(0.993413 -0.0127249 0)
(0.99327 -0.0123744 0)
(0.993134 -0.012033 0)
(0.993005 -0.011701 0)
(0.992883 -0.0113787 0)
(0.992769 -0.0110664 0)
(0.992661 -0.0107644 0)
(0.992561 -0.0104726 0)
(0.992467 -0.0101913 0)
(0.99238 -0.00992044 0)
(0.992298 -0.00965998 0)
(0.992222 -0.00940991 0)
(0.992151 -0.00917022 0)
(1.00346 -0.000586883 0)
(1.00348 -0.00203841 0)
(1.00351 -0.00324196 0)
(1.00355 -0.00452645 0)
(1.0036 -0.00574337 0)
(1.00366 -0.00693605 0)
(1.00372 -0.0081054 0)
(1.00378 -0.00924967 0)
(1.00384 -0.0103695 0)
(1.00389 -0.0114639 0)
(1.00393 -0.012531 0)
(1.00396 -0.0135685 0)
(1.00398 -0.0145738 0)
(1.00398 -0.0155439 0)
(1.00396 -0.0164756 0)
(1.00392 -0.0173656 0)
(1.00386 -0.0182107 0)
(1.00377 -0.0190076 0)
(1.00365 -0.0197532 0)
(1.0035 -0.0204446 0)
(1.00333 -0.0210794 0)
(1.00312 -0.0216554 0)
(1.00289 -0.0221707 0)
(1.00263 -0.022624 0)
(1.00234 -0.0230145 0)
(1.00202 -0.0233417 0)
(1.00169 -0.0236059 0)
(1.00133 -0.0238075 0)
(1.00094 -0.0239477 0)
(1.00055 -0.0240281 0)
(1.00014 -0.0240506 0)
(0.999711 -0.0240176 0)
(0.999278 -0.0239318 0)
(0.998839 -0.0237961 0)
(0.998396 -0.0236139 0)
(0.997952 -0.0233883 0)
(0.997509 -0.0231229 0)
(0.99707 -0.0228212 0)
(0.996636 -0.0224868 0)
(0.996209 -0.0221232 0)
(0.995792 -0.0217342 0)
(0.995384 -0.0213231 0)
(0.994988 -0.0208934 0)
(0.994604 -0.0204485 0)
(0.994232 -0.0199912 0)
(0.993875 -0.0195244 0)
(0.993531 -0.0190506 0)
(0.993202 -0.0185722 0)
(0.992887 -0.0180913 0)
(0.992587 -0.0176099 0)
(0.992299 -0.01713 0)
(0.992025 -0.0166531 0)
(0.991765 -0.0161811 0)
(0.991517 -0.0157152 0)
(0.991283 -0.0152568 0)
(0.991063 -0.0148071 0)
(0.990856 -0.0143669 0)
(0.990662 -0.0139371 0)
(0.990481 -0.0135183 0)
(0.99031 -0.013111 0)
(0.990151 -0.0127157 0)
(0.990001 -0.0123326 0)
(0.98986 -0.0119621 0)
(0.989727 -0.0116042 0)
(0.989603 -0.0112592 0)
(0.989486 -0.0109269 0)
(0.989376 -0.0106075 0)
(0.989274 -0.0103008 0)
(0.989177 -0.0100068 0)
(1.0044 -0.000665905 0)
(1.00441 -0.00230312 0)
(1.00446 -0.00366535 0)
(1.00451 -0.00511846 0)
(1.00457 -0.00649328 0)
(1.00464 -0.00784292 0)
(1.00472 -0.00916575 0)
(1.00479 -0.0104604 0)
(1.00487 -0.0117279 0)
(1.00493 -0.012967 0)
(1.00499 -0.0141756 0)
(1.00503 -0.0153514 0)
(1.00505 -0.0164914 0)
(1.00505 -0.0175922 0)
(1.00502 -0.0186505 0)
(1.00497 -0.0196625 0)
(1.00489 -0.0206246 0)
(1.00478 -0.0215331 0)
(1.00463 -0.0223848 0)
(1.00444 -0.0231763 0)
(1.00422 -0.0239047 0)
(1.00396 -0.0245675 0)
(1.00366 -0.0251625 0)
(1.00333 -0.0256882 0)
(1.00296 -0.0261432 0)
(1.00256 -0.0265269 0)
(1.00212 -0.0268393 0)
(1.00166 -0.0270808 0)
(1.00117 -0.0272523 0)
(1.00066 -0.0273552 0)
(1.00013 -0.0273916 0)
(0.999581 -0.0273638 0)
(0.999021 -0.0272745 0)
(0.998452 -0.0271269 0)
(0.997877 -0.0269245 0)
(0.9973 -0.0266708 0)
(0.996724 -0.0263699 0)
(0.996152 -0.0260256 0)
(0.995586 -0.0256421 0)
(0.995028 -0.0252234 0)
(0.994482 -0.0247735 0)
(0.993948 -0.0242965 0)
(0.993429 -0.0237959 0)
(0.992925 -0.0232757 0)
(0.992438 -0.0227392 0)
(0.991968 -0.0221901 0)
(0.991517 -0.0216315 0)
(0.991085 -0.0210667 0)
(0.990672 -0.0204985 0)
(0.990279 -0.0199297 0)
(0.989905 -0.0193626 0)
(0.98955 -0.0187992 0)
(0.989215 -0.0182415 0)
(0.988896 -0.017691 0)
(0.988595 -0.017149 0)
(0.988308 -0.0166169 0)
(0.988036 -0.0160956 0)
(0.987777 -0.0155861 0)
(0.987532 -0.0150893 0)
(0.987301 -0.0146057 0)
(0.987083 -0.014136 0)
(0.986878 -0.0136806 0)
(0.986686 -0.0132398 0)
(0.986506 -0.0128138 0)
(0.986337 -0.0124028 0)
(0.986179 -0.0120069 0)
(0.986032 -0.011626 0)
(0.985894 -0.0112601 0)
(0.985766 -0.0109093 0)
(1.0054 -0.000741038 0)
(1.00542 -0.00255176 0)
(1.00547 -0.00406239 0)
(1.00553 -0.00567406 0)
(1.00561 -0.00719757 0)
(1.0057 -0.00869573 0)
(1.00579 -0.0101642 0)
(1.00589 -0.0116024 0)
(1.00598 -0.0130114 0)
(1.00606 -0.01439 0)
(1.00612 -0.0157359 0)
(1.00617 -0.0170466 0)
(1.0062 -0.0183189 0)
(1.0062 -0.0195494 0)
(1.00617 -0.0207342 0)
(1.00611 -0.0218694 0)
(1.00601 -0.022951 0)
(1.00587 -0.0239751 0)
(1.00569 -0.0249378 0)
(1.00547 -0.0258356 0)
(1.00519 -0.0266652 0)
(1.00488 -0.0274237 0)
(1.00452 -0.0281085 0)
(1.00411 -0.0287175 0)
(1.00366 -0.0292493 0)
(1.00316 -0.0297028 0)
(1.00263 -0.0300774 0)
(1.00206 -0.0303733 0)
(1.00145 -0.0305911 0)
(1.00082 -0.030732 0)
(1.00016 -0.0307978 0)
(0.999479 -0.0307906 0)
(0.998781 -0.0307133 0)
(0.99807 -0.030569 0)
(0.997351 -0.0303612 0)
(0.996627 -0.0300939 0)
(0.995903 -0.0297712 0)
(0.995182 -0.0293974 0)
(0.994467 -0.0289769 0)
(0.993763 -0.0285142 0)
(0.993071 -0.0280139 0)
(0.992394 -0.0274806 0)
(0.991734 -0.0269187 0)
(0.991092 -0.0263328 0)
(0.990471 -0.0257269 0)
(0.989872 -0.0251051 0)
(0.989295 -0.024471 0)
(0.988741 -0.0238279 0)
(0.988211 -0.023179 0)
(0.987704 -0.0225271 0)
(0.98722 -0.021875 0)
(0.986758 -0.0212251 0)
(0.986319 -0.0205798 0)
(0.985902 -0.0199413 0)
(0.985507 -0.0193114 0)
(0.985134 -0.018692 0)
(0.984783 -0.0180845 0)
(0.984453 -0.0174901 0)
(0.984143 -0.0169098 0)
(0.983852 -0.0163446 0)
(0.983578 -0.0157951 0)
(0.983321 -0.0152619 0)
(0.98308 -0.0147455 0)
(0.982854 -0.0142461 0)
(0.982641 -0.0137641 0)
(0.982442 -0.0132995 0)
(0.982255 -0.0128523 0)
(0.98208 -0.0124227 0)
(0.981917 -0.0120106 0)
(1.00645 -0.000811708 0)
(1.00647 -0.00278352 0)
(1.00654 -0.0044326 0)
(1.00661 -0.00619262 0)
(1.0067 -0.00785546 0)
(1.00681 -0.00949367 0)
(1.00692 -0.0111001 0)
(1.00703 -0.0126749 0)
(1.00714 -0.0142195 0)
(1.00724 -0.0157326 0)
(1.00732 -0.0172118 0)
(1.00738 -0.0186546 0)
(1.00742 -0.0200578 0)
(1.00742 -0.0214174 0)
(1.00739 -0.0227295 0)
(1.00732 -0.02399 0)
(1.00721 -0.0251945 0)
(1.00705 -0.0263388 0)
(1.00684 -0.0274187 0)
(1.00657 -0.0284304 0)
(1.00626 -0.0293702 0)
(1.00588 -0.0302347 0)
(1.00546 -0.031021 0)
(1.00497 -0.0317266 0)
(1.00444 -0.0323494 0)
(1.00385 -0.032888 0)
(1.00322 -0.0333414 0)
(1.00253 -0.0337091 0)
(1.00181 -0.0339914 0)
(1.00105 -0.0341891 0)
(1.00026 -0.0343035 0)
(0.999435 -0.0343366 0)
(0.99859 -0.0342909 0)
(0.997728 -0.0341695 0)
(0.996852 -0.0339758 0)
(0.995969 -0.0337136 0)
(0.995084 -0.0333871 0)
(0.9942 -0.033001 0)
(0.993322 -0.0325597 0)
(0.992454 -0.0320684 0)
(0.991601 -0.0315319 0)
(0.990763 -0.0309551 0)
(0.989946 -0.030343 0)
(0.989151 -0.0297003 0)
(0.98838 -0.0290317 0)
(0.987634 -0.0283415 0)
(0.986916 -0.0276343 0)
(0.986227 -0.0269143 0)
(0.985566 -0.0261854 0)
(0.984934 -0.0254514 0)
(0.984332 -0.0247157 0)
(0.98376 -0.0239815 0)
(0.983217 -0.0232515 0)
(0.982702 -0.0225281 0)
(0.982214 -0.0218135 0)
(0.981751 -0.0211096 0)
(0.981313 -0.020418 0)
(0.980897 -0.0197403 0)
(0.980504 -0.0190777 0)
(0.980133 -0.0184315 0)
(0.979784 -0.0178025 0)
(0.979455 -0.0171916 0)
(0.979146 -0.0165992 0)
(0.978857 -0.0160259 0)
(0.978586 -0.0154719 0)
(0.978332 -0.0149375 0)
(0.978095 -0.0144228 0)
(0.977873 -0.0139279 0)
(0.977665 -0.0134528 0)
(1.00753 -0.000877623 0)
(1.00756 -0.00299826 0)
(1.00763 -0.0047763 0)
(1.00772 -0.00667456 0)
(1.00783 -0.00846751 0)
(1.00796 -0.0102374 0)
(1.00809 -0.0119742 0)
(1.00822 -0.013679 0)
(1.00835 -0.0153534 0)
(1.00847 -0.0169961 0)
(1.00857 -0.0186049 0)
(1.00864 -0.0201773 0)
(1.00869 -0.0217096 0)
(1.0087 -0.0231982 0)
(1.00867 -0.0246386 0)
(1.0086 -0.0260267 0)
(1.00847 -0.0273577 0)
(1.00829 -0.0286272 0)
(1.00805 -0.0298308 0)
(1.00776 -0.0309643 0)
(1.00739 -0.0320236 0)
(1.00697 -0.033005 0)
(1.00648 -0.0339051 0)
(1.00593 -0.034721 0)
(1.00531 -0.0354501 0)
(1.00463 -0.0360904 0)
(1.0039 -0.0366404 0)
(1.00311 -0.0370991 0)
(1.00226 -0.0374661 0)
(1.00137 -0.0377417 0)
(1.00044 -0.0379266 0)
(0.999476 -0.0380224 0)
(0.998479 -0.0380309 0)
(0.997458 -0.037955 0)
(0.996418 -0.0377977 0)
(0.995366 -0.0375627 0)
(0.994308 -0.0372541 0)
(0.993249 -0.0368765 0)
(0.992195 -0.0364347 0)
(0.99115 -0.0359338 0)
(0.990119 -0.0353789 0)
(0.989106 -0.0347755 0)
(0.988115 -0.0341289 0)
(0.987149 -0.0334446 0)
(0.98621 -0.032728 0)
(0.985301 -0.0319842 0)
(0.984423 -0.0312182 0)
(0.983579 -0.0304346 0)
(0.982768 -0.0296377 0)
(0.981991 -0.0288316 0)
(0.981248 -0.02802 0)
(0.980539 -0.0272065 0)
(0.979863 -0.0263945 0)
(0.97922 -0.025587 0)
(0.97861 -0.024787 0)
(0.978033 -0.0239969 0)
(0.977489 -0.0232191 0)
(0.976976 -0.0224555 0)
(0.976493 -0.0217077 0)
(0.97604 -0.0209771 0)
(0.975613 -0.0202649 0)
(0.975213 -0.019572 0)
(0.974836 -0.0188994 0)
(0.974483 -0.0182476 0)
(0.974151 -0.0176171 0)
(0.97384 -0.0170083 0)
(0.973549 -0.0164215 0)
(0.973276 -0.0158568 0)
(0.97302 -0.0153143 0)
(1.00863 -0.000938784 0)
(1.00867 -0.0031965 0)
(1.00875 -0.00509445 0)
(1.00885 -0.00712123 0)
(1.00898 -0.00903545 0)
(1.00913 -0.010929 0)
(1.00928 -0.0127889 0)
(1.00944 -0.014617 0)
(1.00959 -0.0164157 0)
(1.00973 -0.0181834 0)
(1.00985 -0.0199182 0)
(1.00994 -0.0216174 0)
(1.01 -0.0232775 0)
(1.01002 -0.0248946 0)
(1.01 -0.0264642 0)
(1.00992 -0.0279819 0)
(1.00979 -0.0294428 0)
(1.0096 -0.0308423 0)
(1.00934 -0.0321756 0)
(1.00901 -0.0334383 0)
(1.00861 -0.0346261 0)
(1.00814 -0.0357348 0)
(1.0076 -0.0367607 0)
(1.00698 -0.0377005 0)
(1.00629 -0.038551 0)
(1.00552 -0.0393097 0)
(1.00469 -0.0399744 0)
(1.00379 -0.0405436 0)
(1.00283 -0.0410162 0)
(1.00181 -0.0413916 0)
(1.00075 -0.0416701 0)
(0.999634 -0.0418522 0)
(0.998482 -0.0419394 0)
(0.997298 -0.0419338 0)
(0.996089 -0.0418379 0)
(0.994862 -0.041655 0)
(0.993623 -0.041389 0)
(0.992379 -0.041044 0)
(0.991136 -0.0406248 0)
(0.989902 -0.0401365 0)
(0.98868 -0.0395844 0)
(0.987476 -0.0389741 0)
(0.986296 -0.0383114 0)
(0.985142 -0.0376019 0)
(0.984018 -0.0368514 0)
(0.982928 -0.0360655 0)
(0.981874 -0.0352498 0)
(0.980857 -0.0344096 0)
(0.979879 -0.0335504 0)
(0.978942 -0.0326771 0)
(0.978046 -0.0317944 0)
(0.977191 -0.0309069 0)
(0.976378 -0.0300184 0)
(0.975605 -0.0291325 0)
(0.974872 -0.0282525 0)
(0.974177 -0.0273811 0)
(0.973518 -0.0265209 0)
(0.972894 -0.0256744 0)
(0.972303 -0.0248436 0)
(0.971745 -0.0240304 0)
(0.971219 -0.0232363 0)
(0.970724 -0.0224626 0)
(0.970259 -0.0217104 0)
(0.969823 -0.0209805 0)
(0.969413 -0.0202737 0)
(0.96903 -0.0195904 0)
(0.968671 -0.018931 0)
(0.968335 -0.0182958 0)
(0.968021 -0.017685 0)
(1.00974 -0.000995382 0)
(1.00978 -0.0033791 0)
(1.00988 -0.0053884 0)
(1.01 -0.00753444 0)
(1.01015 -0.00956156 0)
(1.01031 -0.0115711 0)
(1.01049 -0.013547 0)
(1.01067 -0.0154924 0)
(1.01085 -0.0174098 0)
(1.01101 -0.019298 0)
(1.01116 -0.0211551 0)
(1.01127 -0.0229785 0)
(1.01135 -0.0247647 0)
(1.01138 -0.0265096 0)
(1.01137 -0.0282089 0)
(1.0113 -0.0298578 0)
(1.01116 -0.0314514 0)
(1.01096 -0.0329848 0)
(1.01069 -0.0344531 0)
(1.01034 -0.0358517 0)
(1.00991 -0.0371759 0)
(1.0094 -0.0384214 0)
(1.00881 -0.0395841 0)
(1.00813 -0.0406602 0)
(1.00737 -0.0416462 0)
(1.00653 -0.042539 0)
(1.00561 -0.0433358 0)
(1.00461 -0.0440345 0)
(1.00354 -0.044633 0)
(1.0024 -0.0451302 0)
(1.0012 -0.0455254 0)
(0.99994 -0.0458183 0)
(0.998635 -0.0460096 0)
(0.997288 -0.0461005 0)
(0.995907 -0.0460927 0)
(0.994499 -0.0459888 0)
(0.993073 -0.0457921 0)
(0.991637 -0.0455061 0)
(0.990197 -0.0451355 0)
(0.988761 -0.044685 0)
(0.987336 -0.0441599 0)
(0.985927 -0.043566 0)
(0.984541 -0.0429092 0)
(0.983183 -0.0421956 0)
(0.981857 -0.0414315 0)
(0.980567 -0.0406232 0)
(0.979316 -0.0397769 0)
(0.978107 -0.0388987 0)
(0.976942 -0.0379941 0)
(0.975823 -0.0370687 0)
(0.97475 -0.0361275 0)
(0.973723 -0.0351756 0)
(0.972742 -0.0342174 0)
(0.971807 -0.0332574 0)
(0.970917 -0.0322998 0)
(0.970073 -0.0313484 0)
(0.969275 -0.0304064 0)
(0.968522 -0.0294768 0)
(0.967812 -0.0285622 0)
(0.967143 -0.0276647 0)
(0.966514 -0.0267864 0)
(0.965922 -0.0259288 0)
(0.965366 -0.0250935 0)
(0.964843 -0.0242815 0)
(0.964353 -0.0234939 0)
(0.963892 -0.0227314 0)
(0.96346 -0.0219947 0)
(0.963056 -0.0212841 0)
(0.962677 -0.0206002 0)
(1.01086 -0.00104773 0)
(1.0109 -0.00354711 0)
(1.01101 -0.00565953 0)
(1.01115 -0.00791606 0)
(1.01132 -0.0100482 0)
(1.01151 -0.0121663 0)
(1.01171 -0.0142515 0)
(1.01192 -0.0163081 0)
(1.01213 -0.0183391 0)
(1.01232 -0.0203432 0)
(1.01249 -0.0223188 0)
(1.01263 -0.0242636 0)
(1.01273 -0.0261739 0)
(1.01278 -0.0280457 0)
(1.01278 -0.0298745 0)
(1.01272 -0.0316555 0)
(1.01259 -0.0333838 0)
(1.01239 -0.0350542 0)
(1.0121 -0.0366618 0)
(1.01174 -0.0382016 0)
(1.01129 -0.039669 0)
(1.01075 -0.0410592 0)
(1.01011 -0.0423681 0)
(1.00939 -0.0435914 0)
(1.00857 -0.0447254 0)
(1.00766 -0.0457663 0)
(1.00666 -0.0467111 0)
(1.00557 -0.0475567 0)
(1.00439 -0.0483005 0)
(1.00314 -0.0489405 0)
(1.00181 -0.049475 0)
(1.00042 -0.0499029 0)
(0.998964 -0.0502236 0)
(0.997456 -0.0504374 0)
(0.995904 -0.050545 0)
(0.994316 -0.0505481 0)
(0.992701 -0.050449 0)
(0.991067 -0.0502506 0)
(0.989422 -0.0499568 0)
(0.987776 -0.0495719 0)
(0.986136 -0.0491008 0)
(0.98451 -0.0485492 0)
(0.982905 -0.0479228 0)
(0.981326 -0.0472278 0)
(0.979781 -0.0464707 0)
(0.978273 -0.0456581 0)
(0.976808 -0.0447965 0)
(0.975389 -0.0438926 0)
(0.974018 -0.042953 0)
(0.972698 -0.0419843 0)
(0.971431 -0.0409927 0)
(0.970218 -0.0399842 0)
(0.969061 -0.0389645 0)
(0.967958 -0.0379384 0)
(0.966909 -0.0369108 0)
(0.965914 -0.0358856 0)
(0.964968 -0.0348669 0)
(0.964072 -0.033858 0)
(0.963223 -0.0328624 0)
(0.96242 -0.0318828 0)
(0.961662 -0.0309219 0)
(0.960947 -0.0299818 0)
(0.960275 -0.0290643 0)
(0.959643 -0.028171 0)
(0.95905 -0.0273031 0)
(0.958494 -0.0264617 0)
(0.957973 -0.0256475 0)
(0.957485 -0.0248612 0)
(0.957029 -0.0241034 0)
(1.01196 -0.00109617 0)
(1.01202 -0.00370157 0)
(1.01214 -0.00590919 0)
(1.01229 -0.00826791 0)
(1.01248 -0.0104975 0)
(1.0127 -0.0127174 0)
(1.01293 -0.0149053 0)
(1.01317 -0.0170673 0)
(1.0134 -0.0192065 0)
(1.01363 -0.0213219 0)
(1.01383 -0.0234122 0)
(1.01399 -0.0254752 0)
(1.01412 -0.0275072 0)
(1.0142 -0.0295043 0)
(1.01422 -0.031462 0)
(1.01417 -0.0333753 0)
(1.01406 -0.0352393 0)
(1.01386 -0.0370487 0)
(1.01358 -0.0387984 0)
(1.0132 -0.0404835 0)
(1.01274 -0.042099 0)
(1.01217 -0.0436402 0)
(1.01151 -0.0451027 0)
(1.01075 -0.0464821 0)
(1.00988 -0.0477743 0)
(1.00891 -0.0489753 0)
(1.00784 -0.0500816 0)
(1.00667 -0.0510895 0)
(1.00541 -0.0519959 0)
(1.00405 -0.0527977 0)
(1.00261 -0.0534925 0)
(1.00108 -0.054078 0)
(0.999489 -0.0545527 0)
(0.997828 -0.0549154 0)
(0.99611 -0.0551659 0)
(0.994344 -0.0553045 0)
(0.99254 -0.0553323 0)
(0.990707 -0.0552513 0)
(0.988854 -0.0550643 0)
(0.986992 -0.0547748 0)
(0.985129 -0.0543871 0)
(0.983275 -0.0539062 0)
(0.981437 -0.0533378 0)
(0.979624 -0.0526881 0)
(0.977843 -0.0519637 0)
(0.9761 -0.0511716 0)
(0.974401 -0.0503189 0)
(0.97275 -0.0494129 0)
(0.971151 -0.0484606 0)
(0.969608 -0.0474691 0)
(0.968123 -0.0464449 0)
(0.966697 -0.0453946 0)
(0.965331 -0.0443244 0)
(0.964024 -0.0432404 0)
(0.962778 -0.0421482 0)
(0.961592 -0.0410534 0)
(0.960467 -0.0399608 0)
(0.959402 -0.0388749 0)
(0.958396 -0.0377996 0)
(0.957448 -0.0367383 0)
(0.956554 -0.0356939 0)
(0.955713 -0.0346692 0)
(0.954921 -0.0336665 0)
(0.954176 -0.0326879 0)
(0.953476 -0.0317352 0)
(0.952818 -0.0308097 0)
(0.952201 -0.0299127 0)
(0.951623 -0.0290452 0)
(0.951082 -0.0282079 0)
(1.01305 -0.00114093 0)
(1.01312 -0.00384328 0)
(1.01325 -0.00613858 0)
(1.01342 -0.0085916 0)
(1.01364 -0.0109116 0)
(1.01388 -0.0132263 0)
(1.01414 -0.0155108 0)
(1.01441 -0.0177723 0)
(1.01468 -0.0200145 0)
(1.01494 -0.0222365 0)
(1.01517 -0.0244374 0)
(1.01537 -0.0266151 0)
(1.01553 -0.028766 0)
(1.01564 -0.0308863 0)
(1.01568 -0.0329713 0)
(1.01566 -0.0350162 0)
(1.01555 -0.0370158 0)
(1.01537 -0.0389649 0)
(1.01509 -0.0408583 0)
(1.01472 -0.042691 0)
(1.01425 -0.0444578 0)
(1.01368 -0.0461542 0)
(1.01299 -0.0477756 0)
(1.0122 -0.0493174 0)
(1.0113 -0.0507756 0)
(1.01028 -0.052146 0)
(1.00915 -0.0534246 0)
(1.00792 -0.0546074 0)
(1.00658 -0.0556908 0)
(1.00513 -0.056671 0)
(1.00359 -0.0575446 0)
(1.00195 -0.0583085 0)
(1.00022 -0.0589598 0)
(0.998421 -0.0594964 0)
(0.996546 -0.0599163 0)
(0.99461 -0.0602186 0)
(0.992622 -0.0604029 0)
(0.990592 -0.0604698 0)
(0.988531 -0.0604208 0)
(0.98645 -0.0602582 0)
(0.984359 -0.0599853 0)
(0.982268 -0.0596063 0)
(0.980188 -0.0591262 0)
(0.978128 -0.0585507 0)
(0.976097 -0.0578861 0)
(0.974101 -0.0571393 0)
(0.97215 -0.0563174 0)
(0.970248 -0.055428 0)
(0.968402 -0.0544788 0)
(0.966615 -0.0534778 0)
(0.964891 -0.0524329 0)
(0.963234 -0.0513519 0)
(0.961645 -0.0502423 0)
(0.960127 -0.049111 0)
(0.958679 -0.0479646 0)
(0.9573 -0.0468089 0)
(0.955989 -0.0456493 0)
(0.954743 -0.0444912 0)
(0.953561 -0.0433393 0)
(0.952441 -0.0421982 0)
(0.951381 -0.0410717 0)
(0.950381 -0.0399635 0)
(0.949438 -0.0388766 0)
(0.948552 -0.0378134 0)
(0.947719 -0.0367762 0)
(0.946937 -0.0357669 0)
(0.946204 -0.0347868 0)
(0.945517 -0.0338374 0)
(0.944874 -0.0329198 0)
(1.01413 -0.00118211 0)
(1.0142 -0.0039728 0)
(1.01435 -0.00634867 0)
(1.01454 -0.00888848 0)
(1.01478 -0.011292 0)
(1.01505 -0.0136951 0)
(1.01534 -0.0160698 0)
(1.01565 -0.0184251 0)
(1.01595 -0.0207648 0)
(1.01625 -0.0230886 0)
(1.01652 -0.0253957 0)
(1.01675 -0.0276842 0)
(1.01695 -0.0299506 0)
(1.01708 -0.0321912 0)
(1.01716 -0.0344014 0)
(1.01716 -0.0365761 0)
(1.01708 -0.0387103 0)
(1.01691 -0.0407985 0)
(1.01665 -0.0428356 0)
(1.01629 -0.0448165 0)
(1.01582 -0.0467361 0)
(1.01524 -0.0485897 0)
(1.01455 -0.0503728 0)
(1.01374 -0.0520811 0)
(1.01281 -0.0537103 0)
(1.01177 -0.0552563 0)
(1.0106 -0.056715 0)
(1.00931 -0.0580822 0)
(1.00791 -0.0593538 0)
(1.00639 -0.0605258 0)
(1.00476 -0.0615939 0)
(1.00302 -0.0625541 0)
(1.00118 -0.0634025 0)
(0.999248 -0.0641355 0)
(0.997229 -0.0647499 0)
(0.995133 -0.065243 0)
(0.99297 -0.0656129 0)
(0.990751 -0.0658584 0)
(0.988486 -0.0659794 0)
(0.986188 -0.0659767 0)
(0.983867 -0.0658521 0)
(0.981536 -0.0656084 0)
(0.979205 -0.0652498 0)
(0.976887 -0.064781 0)
(0.974592 -0.0642081 0)
(0.972329 -0.0635375 0)
(0.970107 -0.0627768 0)
(0.967934 -0.0619338 0)
(0.965817 -0.0610166 0)
(0.963763 -0.0600336 0)
(0.961775 -0.0589928 0)
(0.959857 -0.0579025 0)
(0.958013 -0.0567706 0)
(0.956242 -0.0556051 0)
(0.954547 -0.0544137 0)
(0.952928 -0.0532041 0)
(0.951386 -0.0519833 0)
(0.949924 -0.0507578 0)
(0.948539 -0.0495335 0)
(0.947231 -0.0483153 0)
(0.945996 -0.0471079 0)
(0.944832 -0.0459155 0)
(0.943735 -0.0447418 0)
(0.942702 -0.0435902 0)
(0.941731 -0.0424636 0)
(0.940818 -0.0413646 0)
(0.93996 -0.0402952 0)
(0.939156 -0.0392573 0)
(0.938402 -0.0382524 0)
(1.01519 -0.00121979 0)
(1.01526 -0.00409053 0)
(1.01543 -0.00654015 0)
(1.01563 -0.00915946 0)
(1.0159 -0.0116398 0)
(1.0162 -0.0141246 0)
(1.01653 -0.0165835 0)
(1.01687 -0.0190267 0)
(1.01721 -0.0214585 0)
(1.01755 -0.0238788 0)
(1.01785 -0.0262874 0)
(1.01813 -0.0286823 0)
(1.01836 -0.0310604 0)
(1.01854 -0.0334178 0)
(1.01865 -0.03575 0)
(1.01868 -0.0380519 0)
(1.01863 -0.0403184 0)
(1.01849 -0.042544 0)
(1.01825 -0.0447235 0)
(1.0179 -0.0468516 0)
(1.01744 -0.0489236 0)
(1.01687 -0.0509346 0)
(1.01618 -0.0528802 0)
(1.01536 -0.0547564 0)
(1.01442 -0.0565589 0)
(1.01336 -0.0582838 0)
(1.01216 -0.0599272 0)
(1.01084 -0.0614849 0)
(1.00939 -0.0629528 0)
(1.00781 -0.0643265 0)
(1.00611 -0.0656013 0)
(1.00429 -0.0667724 0)
(1.00236 -0.0678351 0)
(1.00031 -0.0687845 0)
(0.998168 -0.069616 0)
(0.995929 -0.0703253 0)
(0.993605 -0.0709087 0)
(0.991207 -0.0713631 0)
(0.988747 -0.0716863 0)
(0.986236 -0.0718771 0)
(0.983689 -0.0719356 0)
(0.981116 -0.0718629 0)
(0.978532 -0.0716614 0)
(0.975949 -0.0713347 0)
(0.973379 -0.0708876 0)
(0.970834 -0.0703259 0)
(0.968326 -0.0696562 0)
(0.965863 -0.0688861 0)
(0.963456 -0.0680238 0)
(0.961111 -0.0670781 0)
(0.958836 -0.0660584 0)
(0.956637 -0.0649741 0)
(0.954517 -0.0638349 0)
(0.952482 -0.06265 0)
(0.950535 -0.0614281 0)
(0.948675 -0.0601773 0)
(0.946902 -0.0589052 0)
(0.945213 -0.0576192 0)
(0.943606 -0.0563262 0)
(0.94208 -0.055033 0)
(0.940633 -0.0537457 0)
(0.939265 -0.0524697 0)
(0.937974 -0.0512098 0)
(0.936759 -0.0499701 0)
(0.935616 -0.0487542 0)
(0.934542 -0.0475652 0)
(0.933534 -0.0464058 0)