/*--------------------------------*- C++ -*----------------------------------*\
  =========                 |
  \\      /  F ield         | OpenFOAM: The Open Source CFD Toolbox
   \\    /   O peration     | Website:  https://openfoam.org
    \\  /    A nd           | Version:  10
     \\/     M anipulation  |
\*---------------------------------------------------------------------------*/
FoamFile
{
    format      ascii;
    class       volVectorField;
    location    "460";
    object      U;
}
// * * * * * * * * * * * * * * * * * * * * * * * * * * * * * * * * * * * * * //

dimensions      [0 1 -1 0 0 0 0];

internalField   nonuniform List<vector> 
66268
(
(0.999999 -3.97607e-05 0)
(0.999999 -0.000145415 0)
(0.999999 -0.000231552 0)
(0.999999 -0.000322031 0)
(0.999999 -0.000410412 0)
(0.999999 -0.0004972 0)
(0.999999 -0.00058304 0)
(0.999999 -0.000667989 0)
(0.999999 -0.000751959 0)
(1 -0.000834827 0)
(1 -0.000916402 0)
(1 -0.000996429 0)
(1 -0.00107461 0)
(1 -0.0011506 0)
(1 -0.00122404 0)
(1 -0.00129456 0)
(1 -0.00136179 0)
(1 -0.00142537 0)
(1 -0.00148496 0)
(1 -0.00154025 0)
(1 -0.00159098 0)
(1 -0.00163692 0)
(1 -0.00167789 0)
(1 -0.00171379 0)
(1 -0.00174455 0)
(1 -0.00177014 0)
(1 -0.00179062 0)
(1.00001 -0.00180607 0)
(1.00001 -0.00181663 0)
(1.00001 -0.00182246 0)
(1.00001 -0.00182378 0)
(1.00001 -0.00182082 0)
(1.00001 -0.00181384 0)
(1.00001 -0.00180312 0)
(1.00001 -0.00178896 0)
(1.00001 -0.00177168 0)
(1.00001 -0.00175158 0)
(1.00001 -0.001729 0)
(1.00001 -0.00170421 0)
(1.00001 -0.00167749 0)
(1.00001 -0.00164908 0)
(1.00001 -0.00161917 0)
(1.00001 -0.00158794 0)
(1.00001 -0.00155555 0)
(1.00001 -0.00152215 0)
(1.00001 -0.00148792 0)
(1 -0.00145303 0)
(1 -0.00141772 0)
(0.999995 -0.00138227 0)
(0.999987 -0.00134697 0)
(0.999976 -0.00131212 0)
(0.999965 -0.001278 0)
(0.999953 -0.00124474 0)
(0.999944 -0.00121242 0)
(0.999937 -0.001181 0)
(0.999935 -0.00115041 0)
(0.999935 -0.00112058 0)
(0.999939 -0.00109147 0)
(0.999944 -0.0010631 0)
(0.99995 -0.00103548 0)
(0.999956 -0.00100868 0)
(0.999962 -0.000982745 0)
(0.999968 -0.000957711 0)
(0.999973 -0.000933615 0)
(0.999977 -0.000910476 0)
(0.99998 -0.000888296 0)
(0.999983 -0.000867072 0)
(0.999985 -0.000846822 0)
(0.999987 -0.000827559 0)
(1.00017 -0.00012596 0)
(1.00017 -0.000453472 0)
(1.00018 -0.000719656 0)
(1.00018 -0.00100156 0)
(1.00018 -0.00127496 0)
(1.00019 -0.00154235 0)
(1.00019 -0.00180596 0)
(1.0002 -0.00206565 0)
(1.0002 -0.00232111 0)
(1.0002 -0.00257194 0)
(1.00021 -0.00281754 0)
(1.00021 -0.00305712 0)
(1.00021 -0.00328978 0)
(1.00021 -0.00351452 0)
(1.00021 -0.00373028 0)
(1.00021 -0.003936 0)
(1.00021 -0.00413061 0)
(1.0002 -0.0043131 0)
(1.0002 -0.00448254 0)
(1.00019 -0.0046381 0)
(1.00018 -0.00477907 0)
(1.00017 -0.00490489 0)
(1.00015 -0.00501513 0)
(1.00014 -0.00510954 0)
(1.00012 -0.00518804 0)
(1.0001 -0.00525068 0)
(1.00008 -0.00529768 0)
(1.00006 -0.00532941 0)
(1.00004 -0.00534636 0)
(1.00001 -0.00534913 0)
(0.999989 -0.00533846 0)
(0.999964 -0.00531513 0)
(0.999939 -0.00528002 0)
(0.999914 -0.00523404 0)
(0.999888 -0.00517809 0)
(0.999862 -0.00511308 0)
(0.999837 -0.00503988 0)
(0.999811 -0.00495934 0)
(0.999786 -0.00487233 0)
(0.999761 -0.00477971 0)
(0.999737 -0.00468233 0)
(0.999713 -0.0045811 0)
(0.999689 -0.00447689 0)
(0.999666 -0.00437057 0)
(0.999643 -0.00426293 0)
(0.999622 -0.00415467 0)
(0.999602 -0.00404638 0)
(0.999585 -0.00393848 0)
(0.999572 -0.00383124 0)
(0.999563 -0.0037248 0)
(0.999558 -0.0036192 0)
(0.999557 -0.00351451 0)
(0.999556 -0.00341092 0)
(0.999554 -0.00330873 0)
(0.999548 -0.00320833 0)
(0.999537 -0.00311012 0)
(0.999523 -0.00301446 0)
(0.999505 -0.00292157 0)
(0.999486 -0.00283158 0)
(0.999467 -0.00274453 0)
(0.999448 -0.00266041 0)
(0.999431 -0.00257918 0)
(0.999415 -0.00250079 0)
(0.999401 -0.0024252 0)
(0.999389 -0.00235237 0)
(0.999378 -0.00228228 0)
(0.999368 -0.00221487 0)
(0.99936 -0.00215014 0)
(0.999352 -0.00208815 0)
(1.00055 -0.000214633 0)
(1.00054 -0.000761812 0)
(1.00056 -0.00120634 0)
(1.00056 -0.00168135 0)
(1.00057 -0.00213902 0)
(1.00059 -0.0025862 0)
(1.0006 -0.00302669 0)
(1.00061 -0.00345985 0)
(1.00062 -0.00388523 0)
(1.00063 -0.00430219 0)
(1.00064 -0.00470972 0)
(1.00064 -0.00510654 0)
(1.00065 -0.00549115 0)
(1.00065 -0.00586195 0)
(1.00064 -0.00621721 0)
(1.00063 -0.00655519 0)
(1.00062 -0.00687419 0)
(1.0006 -0.00717257 0)
(1.00057 -0.00744883 0)
(1.00054 -0.00770162 0)
(1.00051 -0.00792982 0)
(1.00047 -0.00813253 0)
(1.00042 -0.00830908 0)
(1.00037 -0.0084591 0)
(1.00032 -0.00858246 0)
(1.00026 -0.00867931 0)
(1.00019 -0.00875003 0)
(1.00013 -0.00879526 0)
(1.00006 -0.00881585 0)
(0.999985 -0.00881284 0)
(0.999911 -0.00878743 0)
(0.999836 -0.00874094 0)
(0.999761 -0.00867479 0)
(0.999685 -0.00859045 0)
(0.999609 -0.00848949 0)
(0.999535 -0.00837347 0)
(0.999461 -0.00824402 0)
(0.999388 -0.00810274 0)
(0.999318 -0.00795123 0)
(0.999249 -0.007791 0)
(0.999182 -0.00762348 0)
(0.999117 -0.00744992 0)
(0.999055 -0.00727145 0)
(0.998994 -0.00708905 0)
(0.998937 -0.0069036 0)
(0.998881 -0.00671592 0)
(0.998827 -0.00652681 0)
(0.998774 -0.00633709 0)
(0.99872 -0.00614765 0)
(0.998665 -0.0059594 0)
(0.998608 -0.00577327 0)
(0.998552 -0.00559006 0)
(0.998499 -0.00541035 0)
(0.998451 -0.0052345 0)
(0.998411 -0.00506266 0)
(0.99838 -0.00489488 0)
(0.998355 -0.00473121 0)
(0.998337 -0.00457177 0)
(0.998323 -0.00441671 0)
(0.998311 -0.00426621 0)
(0.9983 -0.00412046 0)
(0.99829 -0.00397961 0)
(0.998279 -0.00384377 0)
(0.998269 -0.00371299 0)
(0.998259 -0.00358731 0)
(0.998249 -0.0034667 0)
(0.998238 -0.00335112 0)
(0.998228 -0.00324054 0)
(0.998219 -0.0031349 0)
(1.00107 -0.000299677 0)
(1.00107 -0.00105398 0)
(1.00109 -0.00166936 0)
(1.0011 -0.00233006 0)
(1.00112 -0.00296369 0)
(1.00114 -0.00358393 0)
(1.00116 -0.00419533 0)
(1.00119 -0.00479679 0)
(1.00121 -0.00538792 0)
(1.00123 -0.00596791 0)
(1.00124 -0.00653541 0)
(1.00125 -0.00708868 0)
(1.00126 -0.00762571 0)
(1.00125 -0.00814427 0)
(1.00124 -0.00864203 0)
(1.00122 -0.00911655 0)
(1.0012 -0.00956546 0)
(1.00116 -0.00998645 0)
(1.00111 -0.0103774 0)
(1.00105 -0.0107363 0)
(1.00098 -0.0110616 0)
(1.0009 -0.0113519 0)
(1.00081 -0.0116061 0)
(1.00071 -0.0118237 0)
(1.0006 -0.0120043 0)
(1.00049 -0.012148 0)
(1.00036 -0.0122552 0)
(1.00023 -0.0123266 0)
(1.0001 -0.0123634 0)
(0.999959 -0.0123667 0)
(0.999817 -0.0123383 0)
(0.999673 -0.0122798 0)
(0.999527 -0.0121932 0)
(0.999382 -0.0120805 0)
(0.999237 -0.0119439 0)
(0.999093 -0.0117855 0)
(0.998952 -0.0116075 0)
(0.998813 -0.0114122 0)
(0.998678 -0.0112014 0)
(0.998546 -0.0109772 0)
(0.998419 -0.0107414 0)
(0.998295 -0.0104961 0)
(0.998177 -0.0102431 0)
(0.998063 -0.00998413 0)
(0.997954 -0.00972103 0)
(0.99785 -0.00945544 0)
(0.997753 -0.0091888 0)
(0.997663 -0.00892235 0)
(0.997581 -0.00865704 0)
(0.997509 -0.00839355 0)
(0.997446 -0.0081324 0)
(0.997391 -0.00787405 0)
(0.99734 -0.00761908 0)
(0.997289 -0.00736824 0)
(0.997235 -0.00712238 0)
(0.997178 -0.00688231 0)
(0.997118 -0.0066487 0)
(0.997057 -0.006422 0)
(0.996997 -0.00620247 0)
(0.996939 -0.00599021 0)
(0.996885 -0.00578522 0)
(0.996835 -0.00558745 0)
(0.996789 -0.00539685 0)
(0.996747 -0.00521333 0)
(0.996709 -0.00503682 0)
(0.996675 -0.00486724 0)
(0.996643 -0.0047045 0)
(0.996614 -0.00454854 0)
(0.996588 -0.00439932 0)
(1.00169 -0.000377997 0)
(1.00169 -0.00132313 0)
(1.00172 -0.00209994 0)
(1.00174 -0.0029346 0)
(1.00177 -0.00373321 0)
(1.00181 -0.00451786 0)
(1.00184 -0.00529277 0)
(1.00188 -0.00605671 0)
(1.00191 -0.00680954 0)
(1.00194 -0.00755042 0)
(1.00197 -0.00827771 0)
(1.00199 -0.00898931 0)
(1.00199 -0.00968274 0)
(1.00199 -0.0103552 0)
(1.00198 -0.0110038 0)
(1.00195 -0.0116252 0)
(1.00191 -0.0122165 0)
(1.00185 -0.0127746 0)
(1.00177 -0.0132965 0)
(1.00168 -0.0137796 0)
(1.00157 -0.0142216 0)
(1.00145 -0.0146204 0)
(1.00131 -0.0149744 0)
(1.00115 -0.0152826 0)
(1.00098 -0.0155441 0)
(1.0008 -0.0157587 0)
(1.0006 -0.0159267 0)
(1.0004 -0.0160488 0)
(1.00018 -0.0161259 0)
(0.999963 -0.0161596 0)
(0.999736 -0.0161516 0)
(0.999506 -0.0161041 0)
(0.999273 -0.0160194 0)
(0.999039 -0.0158999 0)
(0.998806 -0.0157483 0)
(0.998575 -0.0155673 0)
(0.998347 -0.0153597 0)
(0.998124 -0.0151282 0)
(0.997905 -0.0148756 0)
(0.997692 -0.0146047 0)
(0.997486 -0.0143182 0)
(0.997286 -0.0140187 0)
(0.997094 -0.0137084 0)
(0.996909 -0.0133894 0)
(0.996732 -0.0130639 0)
(0.996562 -0.0127333 0)
(0.996398 -0.0123994 0)
(0.996239 -0.0120638 0)
(0.996082 -0.0117279 0)
(0.995928 -0.0113935 0)
(0.995774 -0.011062 0)
(0.995625 -0.0107349 0)
(0.995484 -0.0104131 0)
(0.995354 -0.0100974 0)
(0.99524 -0.00978811 0)
(0.995142 -0.00948533 0)
(0.995058 -0.00918926 0)
(0.994985 -0.00890022 0)
(0.994921 -0.00861856 0)
(0.994862 -0.0083447 0)
(0.994807 -0.00807903 0)
(0.994755 -0.00782187 0)
(0.994705 -0.00757346 0)
(0.994658 -0.00733395 0)
(0.994612 -0.00710341 0)
(0.994569 -0.00688184 0)
(0.994528 -0.0066692 0)
(0.994489 -0.00646545 0)
(0.994453 -0.00627051 0)
(1.00238 -0.000450102 0)
(1.00239 -0.001571 0)
(1.00243 -0.0024996 0)
(1.00246 -0.00349672 0)
(1.0025 -0.0044503 0)
(1.00255 -0.00539151 0)
(1.00261 -0.0063235 0)
(1.00266 -0.00724523 0)
(1.00271 -0.00815707 0)
(1.00276 -0.0090582 0)
(1.0028 -0.00994684 0)
(1.00283 -0.0108206 0)
(1.00285 -0.0116766 0)
(1.00285 -0.0125116 0)
(1.00283 -0.0133218 0)
(1.0028 -0.0141036 0)
(1.00275 -0.0148529 0)
(1.00267 -0.0155659 0)
(1.00257 -0.0162389 0)
(1.00245 -0.0168681 0)
(1.0023 -0.0174505 0)
(1.00213 -0.0179832 0)
(1.00194 -0.0184638 0)
(1.00172 -0.0188903 0)
(1.00148 -0.0192614 0)
(1.00122 -0.0195764 0)
(1.00095 -0.019835 0)
(1.00066 -0.0200376 0)
(1.00035 -0.0201849 0)
(1.00004 -0.0202784 0)
(0.999711 -0.0203199 0)
(0.99938 -0.0203114 0)
(0.999044 -0.0202554 0)
(0.998706 -0.0201549 0)
(0.998368 -0.0200126 0)
(0.998032 -0.0198317 0)
(0.997699 -0.0196156 0)
(0.997372 -0.0193674 0)
(0.997051 -0.0190906 0)
(0.996738 -0.0187882 0)
(0.996433 -0.0184636 0)
(0.996137 -0.0181196 0)
(0.995851 -0.0177594 0)
(0.995576 -0.0173859 0)
(0.995312 -0.017002 0)
(0.99506 -0.0166104 0)
(0.99482 -0.0162137 0)
(0.994594 -0.0158143 0)
(0.994385 -0.015414 0)
(0.994194 -0.0150145 0)
(0.99402 -0.0146168 0)
(0.993862 -0.014222 0)
(0.993713 -0.0138312 0)
(0.993568 -0.0134455 0)
(0.993423 -0.0130662 0)
(0.993277 -0.0126947 0)
(0.993131 -0.0123319 0)
(0.992988 -0.0119787 0)
(0.99285 -0.0116355 0)
(0.992721 -0.0113024 0)
(0.992601 -0.0109798 0)
(0.99249 -0.0106676 0)
(0.992389 -0.0103659 0)
(0.992296 -0.0100747 0)
(0.99221 -0.00979408 0)
(0.992132 -0.00952397 0)
(0.99206 -0.00926433 0)
(0.991993 -0.00901515 0)
(0.991932 -0.00877639 0)
(1.00314 -0.000517628 0)
(1.00315 -0.00180138 0)
(1.0032 -0.00287178 0)
(1.00325 -0.00402111 0)
(1.00331 -0.00512102 0)
(1.00338 -0.00621169 0)
(1.00346 -0.00729492 0)
(1.00353 -0.00837023 0)
(1.00361 -0.00943862 0)
(1.00368 -0.0104994 0)
(1.00374 -0.0115507 0)
(1.00379 -0.0125901 0)
(1.00383 -0.0136142 0)
(1.00384 -0.0146195 0)
(1.00384 -0.0156016 0)
(1.00381 -0.016556 0)
(1.00375 -0.0174781 0)
(1.00366 -0.0183629 0)
(1.00354 -0.0192059 0)
(1.00339 -0.0200024 0)
(1.00321 -0.0207482 0)
(1.00299 -0.0214395 0)
(1.00275 -0.0220727 0)
(1.00247 -0.0226451 0)
(1.00216 -0.0231545 0)
(1.00182 -0.0235991 0)
(1.00146 -0.0239782 0)
(1.00108 -0.0242913 0)
(1.00067 -0.024539 0)
(1.00025 -0.024722 0)
(0.999816 -0.024842 0)
(0.999369 -0.024901 0)
(0.998915 -0.0249017 0)
(0.998456 -0.0248469 0)
(0.997996 -0.02474 0)
(0.997536 -0.0245845 0)
(0.997079 -0.0243842 0)
(0.996628 -0.024143 0)
(0.996185 -0.0238648 0)
(0.995752 -0.0235535 0)
(0.995329 -0.0232131 0)
(0.994919 -0.0228474 0)
(0.994522 -0.02246 0)
(0.994139 -0.0220543 0)
(0.993772 -0.0216334 0)
(0.993419 -0.0212 0)
(0.993081 -0.0207569 0)
(0.992755 -0.0203063 0)
(0.99244 -0.0198508 0)
(0.992132 -0.0193929 0)
(0.991832 -0.018935 0)
(0.991541 -0.0184796 0)
(0.991265 -0.0180285 0)
(0.991011 -0.0175832 0)
(0.990781 -0.0171446 0)
(0.990577 -0.0167133 0)
(0.990396 -0.0162899 0)
(0.990233 -0.015875 0)
(0.990083 -0.0154695 0)
(0.989944 -0.0150741 0)
(0.989813 -0.0146895 0)
(0.989688 -0.0143163 0)
(0.98957 -0.0139549 0)
(0.989458 -0.0136057 0)
(0.989352 -0.0132688 0)
(0.989252 -0.0129443 0)
(0.989159 -0.0126322 0)
(0.98907 -0.0123326 0)
(0.988988 -0.0120455 0)
(1.00396 -0.000581544 0)
(1.00398 -0.00201638 0)
(1.00404 -0.00321838 0)
(1.0041 -0.00451033 0)
(1.00419 -0.00574825 0)
(1.00429 -0.00698109 0)
(1.00439 -0.00820923 0)
(1.0045 -0.00943308 0)
(1.00461 -0.0106543 0)
(1.00471 -0.0118725 0)
(1.00481 -0.0130859 0)
(1.00489 -0.0142919 0)
(1.00495 -0.0154872 0)
(1.00499 -0.0166675 0)
(1.005 -0.0178283 0)
(1.00498 -0.0189643 0)
(1.00493 -0.0200701 0)
(1.00484 -0.0211399 0)
(1.00471 -0.0221681 0)
(1.00454 -0.0231491 0)
(1.00433 -0.0240775 0)
(1.00407 -0.0249483 0)
(1.00377 -0.0257569 0)
(1.00344 -0.0264993 0)
(1.00306 -0.0271721 0)
(1.00264 -0.0277728 0)
(1.00219 -0.0282993 0)
(1.00171 -0.0287506 0)
(1.00119 -0.0291263 0)
(1.00066 -0.0294267 0)
(1.0001 -0.0296529 0)
(0.999527 -0.0298068 0)
(0.99894 -0.0298905 0)
(0.998345 -0.0299072 0)
(0.997746 -0.0298599 0)
(0.997146 -0.0297524 0)
(0.996548 -0.0295887 0)
(0.995956 -0.0293727 0)
(0.995373 -0.0291088 0)
(0.9948 -0.0288012 0)
(0.994241 -0.0284542 0)
(0.993697 -0.0280721 0)
(0.99317 -0.0276591 0)
(0.99266 -0.0272194 0)
(0.992169 -0.0267573 0)
(0.991698 -0.026277 0)
(0.991248 -0.0257826 0)
(0.990822 -0.0252779 0)
(0.990421 -0.0247664 0)
(0.990049 -0.024251 0)
(0.989706 -0.023734 0)
(0.989388 -0.0232173 0)
(0.989089 -0.0227026 0)
(0.9888 -0.0221917 0)
(0.988515 -0.0216866 0)
(0.988233 -0.0211892 0)
(0.987956 -0.0207011 0)
(0.987688 -0.0202235 0)
(0.987433 -0.0197573 0)
(0.987194 -0.019303 0)
(0.986971 -0.0188611 0)
(0.986766 -0.018432 0)
(0.986576 -0.0180159 0)
(0.986402 -0.017613 0)
(0.98624 -0.0172237 0)
(0.986091 -0.0168479 0)
(0.985952 -0.016486 0)
(0.985824 -0.0161378 0)
(0.985705 -0.0158035 0)
(1.00483 -0.0006419 0)
(1.00486 -0.0022165 0)
(1.00493 -0.0035403 0)
(1.00502 -0.00496543 0)
(1.00513 -0.00633273 0)
(1.00526 -0.0076998 0)
(1.0054 -0.00906559 0)
(1.00555 -0.0104316 0)
(1.00569 -0.0118002 0)
(1.00584 -0.0131714 0)
(1.00597 -0.0145435 0)
(1.00609 -0.0159142 0)
(1.00619 -0.01728 0)
(1.00626 -0.0186365 0)
(1.0063 -0.0199786 0)
(1.0063 -0.0213006 0)
(1.00627 -0.0225964 0)
(1.00618 -0.0238595 0)
(1.00605 -0.0250831 0)
(1.00587 -0.0262608 0)
(1.00564 -0.0273858 0)
(1.00535 -0.0284521 0)
(1.00501 -0.0294537 0)
(1.00462 -0.0303855 0)
(1.00417 -0.0312426 0)
(1.00368 -0.0320214 0)
(1.00314 -0.0327185 0)
(1.00255 -0.0333319 0)
(1.00193 -0.0338601 0)
(1.00127 -0.0343026 0)
(1.00059 -0.0346598 0)
(0.999877 -0.0349328 0)
(0.999148 -0.0351235 0)
(0.998406 -0.0352344 0)
(0.997654 -0.0352689 0)
(0.996899 -0.0352306 0)
(0.996144 -0.0351238 0)
(0.995393 -0.034953 0)
(0.994651 -0.0347234 0)
(0.99392 -0.0344398 0)
(0.993204 -0.0341077 0)
(0.992505 -0.0337324 0)
(0.991825 -0.0333189 0)
(0.991167 -0.0328724 0)
(0.990531 -0.0323972 0)
(0.98992 -0.0318977 0)
(0.989332 -0.0313777 0)
(0.988767 -0.0308404 0)
(0.988222 -0.0302894 0)
(0.987695 -0.0297278 0)
(0.987184 -0.0291591 0)
(0.98669 -0.0285867 0)
(0.986221 -0.0280139 0)
(0.985784 -0.0274434 0)
(0.985384 -0.0268772 0)
(0.985022 -0.026317 0)
(0.984694 -0.025764 0)
(0.984392 -0.0252197 0)
(0.984112 -0.0246854 0)
(0.983849 -0.0241625 0)
(0.983601 -0.0236522 0)
(0.983365 -0.0231554 0)
(0.983141 -0.022673 0)
(0.98293 -0.0222054 0)
(0.982731 -0.0217532 0)
(0.982544 -0.0213167 0)
(0.982369 -0.0208959 0)
(0.982204 -0.020491 0)
(0.98205 -0.0201022 0)
(1.00573 -0.000698361 0)
(1.00577 -0.0024017 0)
(1.00586 -0.00383826 0)
(1.00597 -0.00538713 0)
(1.00612 -0.0068748 0)
(1.00628 -0.00836756 0)
(1.00646 -0.00986282 0)
(1.00665 -0.0113633 0)
(1.00684 -0.0128721 0)
(1.00703 -0.0143897 0)
(1.00722 -0.0159148 0)
(1.00738 -0.0174453 0)
(1.00752 -0.0189777 0)
(1.00764 -0.0205076 0)
(1.00772 -0.0220297 0)
(1.00775 -0.0235378 0)
(1.00774 -0.0250253 0)
(1.00768 -0.0264849 0)
(1.00756 -0.0279091 0)
(1.00738 -0.0292904 0)
(1.00713 -0.030621 0)
(1.00682 -0.0318936 0)
(1.00645 -0.0331009 0)
(1.006 -0.0342364 0)
(1.0055 -0.035294 0)
(1.00493 -0.0362685 0)
(1.0043 -0.0371553 0)
(1.00362 -0.0379508 0)
(1.00289 -0.0386526 0)
(1.00211 -0.0392588 0)
(1.00129 -0.039769 0)
(1.00044 -0.0401833 0)
(0.999565 -0.0405031 0)
(0.998665 -0.0407305 0)
(0.99775 -0.0408684 0)
(0.996826 -0.0409204 0)
(0.995899 -0.0408907 0)
(0.994974 -0.0407839 0)
(0.994055 -0.040605 0)
(0.993149 -0.0403592 0)
(0.992257 -0.0400517 0)
(0.991385 -0.0396878 0)
(0.990535 -0.039273 0)
(0.98971 -0.0388127 0)
(0.988912 -0.0383123 0)
(0.988143 -0.0377777 0)
(0.987404 -0.0372145 0)
(0.986699 -0.0366283 0)
(0.98603 -0.0360247 0)
(0.9854 -0.0354083 0)
(0.984812 -0.0347834 0)
(0.984263 -0.0341531 0)
(0.983744 -0.0335201 0)
(0.983247 -0.0328871 0)
(0.982762 -0.0322566 0)
(0.982287 -0.0316313 0)
(0.981826 -0.0310136 0)
(0.981383 -0.0304056 0)
(0.980963 -0.0298089 0)
(0.980569 -0.0292246 0)
(0.980202 -0.0286536 0)
(0.979861 -0.0280969 0)
(0.979545 -0.0275552 0)
(0.979252 -0.0270291 0)
(0.978979 -0.026519 0)
(0.978726 -0.0260255 0)
(0.97849 -0.0255489 0)
(0.978271 -0.0250894 0)
(0.978067 -0.0246473 0)
(1.00666 -0.000750662 0)
(1.00671 -0.00257196 0)
(1.00682 -0.00411277 0)
(1.00696 -0.00577589 0)
(1.00713 -0.00737468 0)
(1.00733 -0.00898412 0)
(1.00756 -0.0105999 0)
(1.0078 -0.012226 0)
(1.00804 -0.0138666 0)
(1.00828 -0.0155223 0)
(1.00852 -0.0171925 0)
(1.00874 -0.0188754 0)
(1.00894 -0.0205678 0)
(1.0091 -0.0222653 0)
(1.00923 -0.0239624 0)
(1.00931 -0.0256529 0)
(1.00934 -0.0273296 0)
(1.0093 -0.0289849 0)
(1.00921 -0.0306104 0)
(1.00904 -0.0321978 0)
(1.00879 -0.0337383 0)
(1.00847 -0.0352234 0)
(1.00808 -0.0366447 0)
(1.0076 -0.0379941 0)
(1.00704 -0.0392643 0)
(1.00641 -0.0404483 0)
(1.00571 -0.0415404 0)
(1.00493 -0.0425353 0)
(1.00409 -0.0434291 0)
(1.00319 -0.0442188 0)
(1.00224 -0.0449026 0)
(1.00125 -0.0454796 0)
(1.00021 -0.0459503 0)
(0.999149 -0.0463159 0)
(0.998061 -0.0465787 0)
(0.996957 -0.0467419 0)
(0.995844 -0.0468095 0)
(0.994729 -0.046786 0)
(0.993618 -0.0466768 0)
(0.992517 -0.0464877 0)
(0.99143 -0.0462248 0)
(0.990363 -0.0458948 0)
(0.98932 -0.0455044 0)
(0.988304 -0.0450602 0)
(0.987317 -0.0445687 0)
(0.986364 -0.0440359 0)
(0.985444 -0.043467 0)
(0.984559 -0.0428669 0)
(0.983707 -0.0422399 0)
(0.982884 -0.0415902 0)
(0.982089 -0.0409222 0)
(0.981323 -0.0402405 0)
(0.980591 -0.0395499 0)
(0.979903 -0.0388548 0)
(0.979266 -0.038159 0)
(0.978681 -0.0374654 0)
(0.978143 -0.0367766 0)
(0.977645 -0.036095 0)
(0.977178 -0.0354226 0)
(0.976739 -0.0347617 0)
(0.976323 -0.0341141 0)
(0.97593 -0.0334813 0)
(0.975557 -0.0328646 0)
(0.975206 -0.0322651 0)
(0.974875 -0.0316836 0)
(0.974564 -0.0311206 0)
(0.974272 -0.0305766 0)
(0.973999 -0.0300521 0)
(0.973744 -0.0295472 0)
(1.0076 -0.000798733 0)
(1.00766 -0.00272746 0)
(1.00779 -0.00436418 0)
(1.00795 -0.00613204 0)
(1.00817 -0.00783258 0)
(1.00841 -0.00954936 0)
(1.00868 -0.0112762 0)
(1.00897 -0.0130184 0)
(1.00927 -0.014781 0)
(1.00958 -0.0165653 0)
(1.00988 -0.0183712 0)
(1.01016 -0.0201974 0)
(1.01042 -0.0220409 0)
(1.01065 -0.0238977 0)
(1.01083 -0.0257624 0)
(1.01097 -0.0276286 0)
(1.01104 -0.0294891 0)
(1.01105 -0.0313357 0)
(1.01099 -0.0331598 0)
(1.01085 -0.0349521 0)
(1.01062 -0.0367032 0)
(1.0103 -0.0384035 0)
(1.00989 -0.0400433 0)
(1.00939 -0.0416135 0)
(1.0088 -0.0431051 0)
(1.00811 -0.0445098 0)
(1.00734 -0.0458201 0)
(1.00648 -0.0470294 0)
(1.00554 -0.048132 0)
(1.00452 -0.0491236 0)
(1.00344 -0.0500006 0)
(1.0023 -0.0507609 0)
(1.00111 -0.0514038 0)
(0.999876 -0.0519293 0)
(0.998608 -0.0523389 0)
(0.997315 -0.0526351 0)
(0.996006 -0.0528215 0)
(0.994688 -0.0529023 0)
(0.993369 -0.0528827 0)
(0.992057 -0.0527682 0)
(0.990758 -0.0525649 0)
(0.989479 -0.052279 0)
(0.988225 -0.0519168 0)
(0.987001 -0.0514848 0)
(0.985811 -0.0509896 0)
(0.984658 -0.0504383 0)
(0.983545 -0.0498379 0)
(0.982476 -0.0491962 0)
(0.981453 -0.0485206 0)
(0.980482 -0.0478184 0)
(0.979564 -0.0470962 0)
(0.9787 -0.0463593 0)
(0.977883 -0.045612 0)
(0.977102 -0.0448577 0)
(0.976347 -0.0441 0)
(0.975615 -0.0433423 0)
(0.974908 -0.0425883 0)
(0.97423 -0.041841 0)
(0.973589 -0.041103 0)
(0.972986 -0.0403765 0)
(0.972422 -0.0396631 0)
(0.971897 -0.0389646 0)
(0.971408 -0.0382822 0)
(0.970952 -0.0376171 0)
(0.970526 -0.0369703 0)
(0.97013 -0.0363427 0)
(0.96976 -0.035735 0)
(0.969415 -0.0351478 0)
(0.969093 -0.0345816 0)
(1.00855 -0.000842675 0)
(1.00862 -0.00286861 0)
(1.00877 -0.00459296 0)
(1.00896 -0.00645611 0)
(1.00921 -0.00824909 0)
(1.0095 -0.0100637 0)
(1.00982 -0.0118919 0)
(1.01017 -0.0137403 0)
(1.01053 -0.0156148 0)
(1.0109 -0.0175173 0)
(1.01126 -0.0194484 0)
(1.01161 -0.0214075 0)
(1.01194 -0.023392 0)
(1.01224 -0.0253981 0)
(1.0125 -0.0274209 0)
(1.0127 -0.0294541 0)
(1.01283 -0.0314905 0)
(1.0129 -0.0335217 0)
(1.01288 -0.0355388 0)
(1.01278 -0.0375322 0)
(1.01258 -0.0394916 0)
(1.01228 -0.0414067 0)
(1.01188 -0.0432669 0)
(1.01136 -0.0450617 0)
(1.01075 -0.0467809 0)
(1.01002 -0.0484147 0)
(1.00919 -0.0499542 0)
(1.00825 -0.0513908 0)
(1.00722 -0.0527174 0)
(1.0061 -0.0539277 0)
(1.00489 -0.0550166 0)
(1.00361 -0.0559804 0)
(1.00226 -0.0568167 0)
(1.00086 -0.0575243 0)
(0.999407 -0.0581034 0)
(0.997918 -0.0585556 0)
(0.996403 -0.0588835 0)
(0.994871 -0.0590908 0)
(0.993332 -0.0591822 0)
(0.991794 -0.0591632 0)
(0.990266 -0.0590404 0)
(0.988754 -0.0588208 0)
(0.987267 -0.0585123 0)
(0.98581 -0.0581229 0)
(0.984387 -0.0576611 0)
(0.983004 -0.0571347 0)
(0.981664 -0.0565513 0)
(0.98037 -0.0559174 0)
(0.979121 -0.0552389 0)
(0.977918 -0.0545211 0)
(0.976756 -0.0537694 0)
(0.975637 -0.0529895 0)
(0.974564 -0.0521877 0)
(0.973547 -0.0513705 0)
(0.972594 -0.050544 0)
(0.97171 -0.049713 0)
(0.97089 -0.0488819 0)
(0.970125 -0.048054 0)
(0.969407 -0.0472328 0)
(0.96873 -0.0464214 0)
(0.968089 -0.0456225 0)
(0.967483 -0.0448385 0)
(0.96691 -0.0440716 0)
(0.966369 -0.0433233 0)
(0.965861 -0.0425952 0)
(0.965383 -0.0418881 0)
(0.964935 -0.0412031 0)
(0.964515 -0.0405409 0)
(0.964123 -0.0399021 0)
(1.00949 -0.000882711 0)
(1.00957 -0.00299609 0)
(1.00974 -0.00479985 0)
(1.00996 -0.00674907 0)
(1.01025 -0.00862538 0)
(1.01058 -0.0105285 0)
(1.01096 -0.0124483 0)
(1.01136 -0.0143928 0)
(1.01179 -0.0163688 0)
(1.01223 -0.0183788 0)
(1.01266 -0.0204244 0)
(1.01309 -0.0225052 0)
(1.0135 -0.0246195 0)
(1.01387 -0.0267641 0)
(1.0142 -0.0289343 0)
(1.01448 -0.0311242 0)
(1.01468 -0.0333269 0)
(1.01482 -0.035534 0)
(1.01486 -0.0377367 0)
(1.01481 -0.0399248 0)
(1.01465 -0.042088 0)
(1.01438 -0.0442151 0)
(1.014 -0.0462948 0)
(1.01349 -0.0483157 0)
(1.01287 -0.0502662 0)
(1.01211 -0.0521353 0)
(1.01124 -0.0539124 0)
(1.01024 -0.0555874 0)
(1.00913 -0.0571513 0)
(1.00791 -0.0585961 0)
(1.00659 -0.0599148 0)
(1.00518 -0.0611017 0)
(1.00368 -0.0621528 0)
(1.00211 -0.0630653 0)
(1.00047 -0.0638377 0)
(0.998783 -0.0644702 0)
(0.997058 -0.0649642 0)
(0.995304 -0.0653227 0)
(0.993533 -0.0655496 0)
(0.991756 -0.0656501 0)
(0.989983 -0.0656302 0)
(0.988224 -0.0654965 0)
(0.986487 -0.065256 0)
(0.98478 -0.064916 0)
(0.983111 -0.064484 0)
(0.981485 -0.0639677 0)
(0.979907 -0.0633756 0)
(0.978381 -0.0627168 0)
(0.976913 -0.0620008 0)
(0.975507 -0.0612374 0)
(0.974167 -0.0604362 0)
(0.972896 -0.0596054 0)
(0.97169 -0.0587517 0)
(0.97054 -0.0578802 0)
(0.969436 -0.0569957 0)
(0.968371 -0.0561028 0)
(0.967345 -0.0552063 0)
(0.966364 -0.0543107 0)
(0.965434 -0.0534201 0)
(0.964558 -0.0525379 0)
(0.963737 -0.0516672 0)
(0.962969 -0.0508103 0)
(0.96225 -0.0499697 0)
(0.961579 -0.0491473 0)
(0.960952 -0.0483448 0)
(0.960365 -0.0475638 0)
(0.959817 -0.0468053 0)
(0.959305 -0.0460705 0)
(0.958826 -0.0453604 0)
(1.01042 -0.000919075 0)
(1.01051 -0.00311062 0)
(1.0107 -0.00498579 0)
(1.01095 -0.00701223 0)
(1.01128 -0.00896311 0)
(1.01166 -0.0109457 0)
(1.01209 -0.0129475 0)
(1.01256 -0.0149783 0)
(1.01305 -0.0170454 0)
(1.01356 -0.0191523 0)
(1.01407 -0.0213011 0)
(1.01458 -0.0234925 0)
(1.01506 -0.0257251 0)
(1.01552 -0.0279965 0)
(1.01593 -0.0303027 0)
(1.01629 -0.0326382 0)
(1.01658 -0.0349964 0)
(1.01679 -0.0373694 0)
(1.0169 -0.0397484 0)
(1.01692 -0.0421234 0)
(1.01682 -0.0444837 0)
(1.0166 -0.046818 0)
(1.01625 -0.0491142 0)
(1.01576 -0.0513601 0)
(1.01514 -0.0535433 0)
(1.01438 -0.0556515 0)
(1.01348 -0.0576726 0)
(1.01244 -0.0595951 0)
(1.01127 -0.0614081 0)
(1.00997 -0.0631017 0)
(1.00854 -0.064667 0)
(1.007 -0.0660963 0)
(1.00536 -0.0673836 0)
(1.00363 -0.0685239 0)
(1.00181 -0.0695141 0)
(0.999927 -0.0703526 0)
(0.997989 -0.0710393 0)
(0.996009 -0.0715757 0)
(0.993999 -0.0719646 0)
(0.991973 -0.0722104 0)
(0.989943 -0.0723185 0)
(0.987919 -0.0722954 0)
(0.985913 -0.0721488 0)
(0.983934 -0.0718876 0)
(0.98199 -0.0715211 0)
(0.980089 -0.0710593 0)
(0.978236 -0.070512 0)
(0.976438 -0.069888 0)
(0.974697 -0.0691954 0)
(0.973015 -0.0684413 0)
(0.971393 -0.0676323 0)
(0.969828 -0.0667752 0)
(0.968324 -0.0658777 0)
(0.966889 -0.0649484 0)
(0.965533 -0.0639959 0)
(0.964262 -0.0630278 0)
(0.963074 -0.0620506 0)
(0.961963 -0.0610696 0)
(0.960917 -0.0600896 0)
(0.959929 -0.0591152 0)
(0.958995 -0.0581504 0)
(0.958112 -0.0571989 0)
(0.957278 -0.0562637 0)
(0.956492 -0.0553476 0)
(0.955752 -0.0544528 0)
(0.955057 -0.0535811 0)
(0.954405 -0.052734 0)
(0.953794 -0.0519128 0)
(0.953223 -0.0511187 0)
(1.01133 -0.000951921 0)
(1.01144 -0.00321287 0)
(1.01165 -0.00515184 0)
(1.01193 -0.00724706 0)
(1.0123 -0.00926416 0)
(1.01273 -0.0113174 0)
(1.01321 -0.0133922 0)
(1.01374 -0.0154996 0)
(1.0143 -0.0176479 0)
(1.01488 -0.0198412 0)
(1.01547 -0.0220824 0)
(1.01606 -0.0243729 0)
(1.01663 -0.0267123 0)
(1.01718 -0.0290988 0)
(1.01768 -0.031529 0)
(1.01813 -0.0339983 0)
(1.0185 -0.0365006 0)
(1.0188 -0.0390285 0)
(1.019 -0.0415735 0)
(1.01909 -0.044126 0)
(1.01906 -0.0466753 0)
(1.0189 -0.0492099 0)
(1.0186 -0.0517175 0)
(1.01816 -0.0541855 0)
(1.01756 -0.0566005 0)
(1.01681 -0.0589494 0)
(1.0159 -0.0612189 0)
(1.01483 -0.0633958 0)
(1.01362 -0.0654678 0)
(1.01225 -0.0674229 0)
(1.01073 -0.0692504 0)
(1.00909 -0.0709405 0)
(1.00731 -0.0724847 0)
(1.00543 -0.0738762 0)
(1.00344 -0.0751094 0)
(1.00136 -0.0761807 0)
(0.999215 -0.0770882 0)
(0.997006 -0.0778315 0)
(0.994753 -0.078412 0)
(0.992471 -0.0788328 0)
(0.990172 -0.0790984 0)
(0.987871 -0.0792146 0)
(0.985581 -0.0791882 0)
(0.983313 -0.0790269 0)
(0.981079 -0.0787386 0)
(0.978888 -0.0783316 0)
(0.976749 -0.077815 0)
(0.97467 -0.0771986 0)
(0.972656 -0.0764935 0)
(0.970715 -0.0757117 0)
(0.968851 -0.0748655 0)
(0.967071 -0.0739667 0)
(0.965375 -0.0730256 0)
(0.963757 -0.0720499 0)
(0.962209 -0.0710464 0)
(0.960722 -0.0700212 0)
(0.959292 -0.0689805 0)
(0.957925 -0.067931 0)
(0.956626 -0.0668785 0)
(0.9554 -0.0658284 0)
(0.954248 -0.0647852 0)
(0.953167 -0.0637529 0)
(0.952154 -0.0627352 0)
(0.951205 -0.061735 0)
(0.950316 -0.0607553 0)
(0.949484 -0.0597984 0)
(0.948706 -0.0588662 0)
(0.947977 -0.0579607 0)
(0.947296 -0.0570833 0)
(1.01223 -0.000981354 0)
(1.01235 -0.0033034 0)
(1.01258 -0.00529905 0)
(1.01289 -0.00745512 0)
(1.0133 -0.00953051 0)
(1.01377 -0.0116461 0)
(1.01431 -0.0137852 0)
(1.0149 -0.0159601 0)
(1.01553 -0.0181799 0)
(1.01618 -0.0204494 0)
(1.01685 -0.0227725 0)
(1.01753 -0.0251511 0)
(1.01819 -0.0275859 0)
(1.01883 -0.0300757 0)
(1.01942 -0.0326181 0)
(1.01997 -0.0352092 0)
(1.02044 -0.0378437 0)
(1.02083 -0.0405148 0)
(1.02112 -0.0432147 0)
(1.0213 -0.0459341 0)
(1.02135 -0.0486628 0)
(1.02126 -0.0513895 0)
(1.02103 -0.0541018 0)
(1.02064 -0.0567868 0)
(1.02009 -0.0594308 0)
(1.01937 -0.0620198 0)
(1.01847 -0.0645395 0)
(1.0174 -0.0669757 0)
(1.01615 -0.0693143 0)
(1.01474 -0.0715418 0)
(1.01316 -0.0736454 0)
(1.01142 -0.0756131 0)
(1.00953 -0.0774343 0)
(1.00751 -0.0790996 0)
(1.00536 -0.0806012 0)
(1.0031 -0.0819329 0)
(1.00075 -0.0830906 0)
(0.998316 -0.0840716 0)
(0.99582 -0.0848754 0)
(0.993277 -0.0855032 0)
(0.990703 -0.0859579 0)
(0.988115 -0.0862443 0)
(0.985526 -0.0863683 0)
(0.982953 -0.0863378 0)
(0.980406 -0.086162 0)
(0.977897 -0.0858514 0)
(0.975438 -0.0854174 0)
(0.973036 -0.0848714 0)
(0.9707 -0.0842242 0)
(0.968434 -0.0834853 0)
(0.966243 -0.0826632 0)
(0.964126 -0.0817661 0)
(0.962087 -0.0808029 0)
(0.960131 -0.0797841 0)
(0.958268 -0.0787209 0)
(0.956509 -0.0776244 0)
(0.954856 -0.076504 0)
(0.953302 -0.0753676 0)
(0.951837 -0.0742221 0)
(0.950454 -0.073074 0)
(0.949146 -0.0719293 0)
(0.94791 -0.0707933 0)
(0.946742 -0.0696706 0)
(0.945642 -0.0685655 0)
(0.944607 -0.0674814 0)
(0.943635 -0.0664212 0)
(0.942723 -0.0653873 0)
(0.941868 -0.0643822 0)
(0.941068 -0.0634074 0)
(1.0131 -0.00100751 0)
(1.01323 -0.00338283 0)
(1.01349 -0.00542848 0)
(1.01383 -0.00763789 0)
(1.01427 -0.0097641 0)
(1.0148 -0.0119342 0)
(1.01539 -0.0141293 0)
(1.01604 -0.0163631 0)
(1.01673 -0.0186453 0)
(1.01746 -0.0209814 0)
(1.01821 -0.0233761 0)
(1.01897 -0.0258323 0)
(1.01973 -0.0283513 0)
(1.02046 -0.030933 0)
(1.02115 -0.0335757 0)
(1.02179 -0.0362766 0)
(1.02237 -0.039031 0)
(1.02286 -0.0418333 0)
(1.02325 -0.0446763 0)
(1.02353 -0.0475514 0)
(1.02367 -0.050449 0)
(1.02368 -0.0533581 0)
(1.02353 -0.0562667 0)
(1.02321 -0.0591619 0)
(1.02271 -0.0620298 0)
(1.02204 -0.064856 0)
(1.02117 -0.0676256 0)
(1.02012 -0.0703233 0)
(1.01887 -0.0729339 0)
(1.01743 -0.0754421 0)
(1.0158 -0.0778335 0)
(1.01399 -0.0800939 0)
(1.01201 -0.0822105 0)
(1.00987 -0.0841712 0)
(1.00758 -0.0859659 0)
(1.00515 -0.0875855 0)
(1.0026 -0.0890233 0)
(0.999955 -0.090274 0)
(0.997219 -0.0913347 0)
(0.994417 -0.0922043 0)
(0.991565 -0.0928838 0)
(0.988681 -0.0933763 0)
(0.985784 -0.0936866 0)
(0.98289 -0.0938211 0)
(0.980014 -0.0937873 0)
(0.977173 -0.0935937 0)
(0.974378 -0.0932493 0)
(0.971643 -0.0927639 0)
(0.968977 -0.0921492 0)
(0.966391 -0.0914181 0)
(0.963892 -0.0905853 0)
(0.961488 -0.0896661 0)
(0.959186 -0.0886747 0)
(0.956986 -0.0876233 0)
(0.954881 -0.0865213 0)
(0.952863 -0.0853772 0)
(0.950926 -0.0841993 0)
(0.949073 -0.0829964 0)
(0.947309 -0.0817772 0)
(0.945639 -0.0805495 0)
(0.944066 -0.0793202 0)
(0.942587 -0.0780953 0)
(0.941199 -0.0768803 0)
(0.939896 -0.0756799 0)
(0.938676 -0.0744984 0)
(0.937532 -0.0733396 0)
(0.936461 -0.0722068 0)
(0.935459 -0.0711027 0)
(0.934521 -0.0700299 0)
(1.01395 -0.00103057 0)
(1.01409 -0.00345182 0)
(1.01436 -0.0055411 0)
(1.01474 -0.00779679 0)