/*--------------------------------*- C++ -*----------------------------------*\
  =========                 |
  \\      /  F ield         | OpenFOAM: The Open Source CFD Toolbox
   \\    /   O peration     | Website:  https://openfoam.org
    \\  /    A nd           | Version:  10
     \\/     M anipulation  |
\*---------------------------------------------------------------------------*/
FoamFile
{
    format      ascii;
    class       volVectorField;
    location    "480";
    object      U;
}
// * * * * * * * * * * * * * * * * * * * * * * * * * * * * * * * * * * * * * //

dimensions      [0 1 -1 0 0 0 0];

internalField   nonuniform List<vector> 
66268
(
(1 -4.60542e-05 0)
(1 -0.000168631 0)
(1 -0.000268562 0)
(1 -0.000373017 0)
(1 -0.000474601 0)
(1 -0.000573824 0)
(1 -0.000671294 0)
(1 -0.00076699 0)
(0.999999 -0.000860717 0)
(0.999999 -0.000952244 0)
(0.999999 -0.00104128 0)
(0.999999 -0.00112745 0)
(0.999999 -0.00121037 0)
(0.999999 -0.00128961 0)
(0.999999 -0.00136475 0)
(0.999999 -0.00143535 0)
(0.999999 -0.00150101 0)
(0.999999 -0.00156136 0)
(0.999999 -0.00161607 0)
(0.999999 -0.00166487 0)
(0.999999 -0.00170755 0)
(0.999999 -0.00174394 0)
(0.999999 -0.00177397 0)
(0.999999 -0.00179761 0)
(0.999999 -0.00181492 0)
(0.999999 -0.00182599 0)
(0.999999 -0.00183101 0)
(0.999998 -0.00183019 0)
(0.999998 -0.0018238 0)
(0.999998 -0.00181216 0)
(0.999998 -0.00179559 0)
(0.999998 -0.00177447 0)
(0.999998 -0.00174915 0)
(0.999998 -0.00172002 0)
(0.999998 -0.00168746 0)
(0.999998 -0.00165187 0)
(0.999998 -0.00161365 0)
(0.999998 -0.00157319 0)
(0.999998 -0.00153085 0)
(0.999998 -0.00148699 0)
(0.999998 -0.00144189 0)
(0.999998 -0.0013958 0)
(0.999998 -0.00134893 0)
(0.999998 -0.00130146 0)
(0.999998 -0.00125356 0)
(0.999997 -0.00120537 0)
(0.999995 -0.00115708 0)
(0.999991 -0.00110887 0)
(0.999985 -0.00106095 0)
(0.999977 -0.00101355 0)
(0.999966 -0.000966908 0)
(0.999954 -0.000921235 0)
(0.999943 -0.000876695 0)
(0.999934 -0.000833382 0)
(0.999928 -0.000791332 0)
(0.999926 -0.000750542 0)
(0.999928 -0.000711002 0)
(0.999932 -0.000672707 0)
(0.999938 -0.000635668 0)
(0.999946 -0.000599905 0)
(0.999953 -0.000565444 0)
(0.999959 -0.000532304 0)
(0.999966 -0.000500501 0)
(0.999971 -0.000470037 0)
(0.999975 -0.000440905 0)
(0.999979 -0.000413084 0)
(0.999982 -0.000386548 0)
(0.999984 -0.000361303 0)
(0.999986 -0.000337356 0)
(1.0002 -0.000141298 0)
(1.0002 -0.000509655 0)
(1.0002 -0.000809458 0)
(1.0002 -0.00112624 0)
(1.00021 -0.00143326 0)
(1.00021 -0.00173313 0)
(1.00022 -0.0020282 0)
(1.00022 -0.00231816 0)
(1.00022 -0.00260248 0)
(1.00023 -0.00288054 0)
(1.00023 -0.00315147 0)
(1.00023 -0.00341422 0)
(1.00023 -0.00366762 0)
(1.00022 -0.00391042 0)
(1.00022 -0.00414133 0)
(1.00021 -0.00435908 0)
(1.00021 -0.00456246 0)
(1.0002 -0.00475034 0)
(1.00018 -0.00492173 0)
(1.00017 -0.00507576 0)
(1.00015 -0.00521177 0)
(1.00013 -0.00532927 0)
(1.00011 -0.00542795 0)
(1.00009 -0.00550773 0)
(1.00007 -0.0055687 0)
(1.00004 -0.00561115 0)
(1.00001 -0.00563551 0)
(0.999987 -0.0056424 0)
(0.999958 -0.00563253 0)
(0.999929 -0.00560678 0)
(0.999899 -0.00556613 0)
(0.999869 -0.00551164 0)
(0.999839 -0.00544439 0)
(0.999808 -0.0053655 0)
(0.999778 -0.00527609 0)
(0.999749 -0.00517727 0)
(0.99972 -0.0050701 0)
(0.999691 -0.0049556 0)
(0.999663 -0.00483474 0)
(0.999636 -0.0047085 0)
(0.999609 -0.00457782 0)
(0.999583 -0.00444368 0)
(0.999557 -0.00430705 0)
(0.999533 -0.00416886 0)
(0.999509 -0.00403 0)
(0.999486 -0.00389123 0)
(0.999466 -0.00375322 0)
(0.999447 -0.00361653 0)
(0.999433 -0.00348158 0)
(0.999422 -0.00334868 0)
(0.999416 -0.00321804 0)
(0.999411 -0.00308982 0)
(0.999408 -0.00296418 0)
(0.999403 -0.00284129 0)
(0.999395 -0.00272134 0)
(0.999383 -0.0026045 0)
(0.999368 -0.00249095 0)
(0.999351 -0.00238078 0)
(0.999332 -0.00227405 0)
(0.999313 -0.00217079 0)
(0.999295 -0.002071 0)
(0.999278 -0.00197464 0)
(0.999263 -0.0018817 0)
(0.99925 -0.00179214 0)
(0.999238 -0.00170594 0)
(0.999228 -0.00162305 0)
(0.999219 -0.00154345 0)
(0.999211 -0.0014671 0)
(0.999204 -0.00139407 0)
(1.00062 -0.000237725 0)
(1.00061 -0.000845471 0)
(1.00062 -0.00134012 0)
(1.00063 -0.0018683 0)
(1.00064 -0.00237777 0)
(1.00066 -0.00287586 0)
(1.00067 -0.00336682 0)
(1.00068 -0.00384976 0)
(1.00069 -0.00432398 0)
(1.0007 -0.00478857 0)
(1.0007 -0.00524216 0)
(1.00071 -0.00568307 0)
(1.0007 -0.00610942 0)
(1.0007 -0.00651917 0)
(1.00069 -0.00691023 0)
(1.00067 -0.00728049 0)
(1.00065 -0.00762793 0)
(1.00062 -0.00795066 0)
(1.00058 -0.00824696 0)
(1.00054 -0.00851535 0)
(1.00049 -0.00875464 0)
(1.00044 -0.0089639 0)
(1.00038 -0.00914255 0)
(1.00031 -0.00929031 0)
(1.00024 -0.0094072 0)
(1.00016 -0.00949357 0)
(1.00009 -0.00955004 0)
(1 -0.00957753 0)
(0.999919 -0.00957717 0)
(0.999833 -0.0095503 0)
(0.999745 -0.00949847 0)
(0.999657 -0.00942337 0)
(0.999569 -0.00932673 0)
(0.99948 -0.00921032 0)
(0.999393 -0.00907594 0)
(0.999308 -0.00892543 0)
(0.999224 -0.00876064 0)
(0.999142 -0.00858342 0)
(0.999062 -0.00839562 0)
(0.998985 -0.008199 0)
(0.99891 -0.00799521 0)
(0.998839 -0.00778573 0)
(0.99877 -0.00757183 0)
(0.998704 -0.00735465 0)
(0.998642 -0.00713518 0)
(0.998582 -0.00691431 0)
(0.998524 -0.00669287 0)
(0.998468 -0.00647167 0)
(0.998414 -0.0062515 0)
(0.998359 -0.00603313 0)
(0.998305 -0.00581732 0)
(0.998253 -0.00560476 0)
(0.998203 -0.00539607 0)
(0.998159 -0.00519173 0)
(0.998121 -0.00499212 0)
(0.99809 -0.00479752 0)
(0.998065 -0.00460817 0)
(0.998044 -0.00442425 0)
(0.998028 -0.00424595 0)
(0.998014 -0.0040734 0)
(0.998001 -0.00390672 0)
(0.997989 -0.003746 0)
(0.997978 -0.00359127 0)
(0.997967 -0.00344253 0)
(0.997956 -0.00329975 0)
(0.997945 -0.00316288 0)
(0.997935 -0.00303182 0)
(0.997925 -0.00290654 0)
(0.997916 -0.00278695 0)
(1.00119 -0.00033141 0)
(1.00119 -0.00116763 0)
(1.00121 -0.00185112 0)
(1.00123 -0.00258468 0)
(1.00125 -0.00328925 0)
(1.00127 -0.00397975 0)
(1.00129 -0.00466129 0)
(1.00132 -0.00533244 0)
(1.00134 -0.0059926 0)
(1.00136 -0.00664063 0)
(1.00137 -0.00727475 0)
(1.00138 -0.00789274 0)
(1.00137 -0.00849207 0)
(1.00136 -0.00906999 0)
(1.00134 -0.00962361 0)
(1.00131 -0.01015 0)
(1.00127 -0.0106464 0)
(1.00122 -0.01111 0)
(1.00115 -0.0115384 0)
(1.00107 -0.0119294 0)
(1.00098 -0.0122811 0)
(1.00088 -0.0125922 0)
(1.00077 -0.0128616 0)
(1.00064 -0.0130886 0)
(1.00051 -0.0132732 0)
(1.00037 -0.0134156 0)
(1.00022 -0.0135166 0)
(1.00007 -0.013577 0)
(0.999907 -0.0135985 0)
(0.999744 -0.0135825 0)
(0.999578 -0.0135311 0)
(0.999412 -0.0134463 0)
(0.999245 -0.0133305 0)
(0.999079 -0.013186 0)
(0.998914 -0.0130154 0)
(0.998753 -0.0128211 0)
(0.998595 -0.0126056 0)
(0.998441 -0.0123715 0)
(0.998291 -0.012121 0)
(0.998146 -0.0118563 0)
(0.998007 -0.0115796 0)
(0.997873 -0.0112929 0)
(0.997744 -0.0109983 0)
(0.997622 -0.0106977 0)
(0.997505 -0.0103929 0)
(0.997394 -0.0100859 0)
(0.99729 -0.0097783 0)
(0.997193 -0.00947153 0)
(0.997103 -0.0091669 0)
(0.997022 -0.00886548 0)
(0.99695 -0.00856814 0)
(0.996884 -0.00827557 0)
(0.996823 -0.00798839 0)
(0.996764 -0.00770713 0)
(0.996705 -0.0074323 0)
(0.996645 -0.00716437 0)
(0.996584 -0.00690371 0)
(0.996524 -0.00665061 0)
(0.996466 -0.00640529 0)
(0.99641 -0.00616785 0)
(0.996358 -0.00593838 0)
(0.996309 -0.00571688 0)
(0.996265 -0.00550336 0)
(0.996224 -0.00529778 0)
(0.996187 -0.0051001 0)
(0.996153 -0.00491023 0)
(0.996122 -0.00472809 0)
(0.996094 -0.00455361 0)
(0.996069 -0.00438675 0)
(1.00187 -0.000418976 0)
(1.00188 -0.00146841 0)
(1.00191 -0.00233208 0)
(1.00193 -0.00325948 0)
(1.00197 -0.00414754 0)
(1.002 -0.00502067 0)
(1.00204 -0.0058834 0)
(1.00208 -0.00673407 0)
(1.00212 -0.00757238 0)
(1.00215 -0.00839708 0)
(1.00217 -0.00920603 0)
(1.00219 -0.00999656 0)
(1.00219 -0.0107656 0)
(1.00218 -0.0115097 0)
(1.00215 -0.0122253 0)
(1.00211 -0.0129087 0)
(1.00204 -0.0135562 0)
(1.00196 -0.0141643 0)
(1.00187 -0.0147297 0)
(1.00175 -0.0152494 0)
(1.00161 -0.0157209 0)
(1.00145 -0.0161421 0)
(1.00128 -0.0165113 0)
(1.00109 -0.0168276 0)
(1.00088 -0.0170904 0)
(1.00067 -0.0172997 0)
(1.00043 -0.0174561 0)
(1.00019 -0.0175606 0)
(0.999943 -0.0176147 0)
(0.999687 -0.0176203 0)
(0.999427 -0.0175795 0)
(0.999164 -0.0174951 0)
(0.998899 -0.0173699 0)
(0.998635 -0.0172067 0)
(0.998374 -0.0170089 0)
(0.998115 -0.0167796 0)
(0.997862 -0.0165218 0)
(0.997614 -0.0162389 0)
(0.997372 -0.0159339 0)
(0.997138 -0.0156099 0)
(0.996911 -0.0152699 0)
(0.996692 -0.0149168 0)
(0.996482 -0.0145532 0)
(0.996281 -0.0141816 0)
(0.996088 -0.0138041 0)
(0.995904 -0.0134227 0)
(0.995729 -0.0130391 0)
(0.995561 -0.0126549 0)
(0.995399 -0.0122715 0)
(0.995244 -0.0118905 0)
(0.995094 -0.011513 0)
(0.994951 -0.0111404 0)
(0.994815 -0.0107737 0)
(0.99469 -0.0104138 0)
(0.994576 -0.0100615 0)
(0.994474 -0.00971739 0)
(0.994382 -0.00938197 0)
(0.9943 -0.00905563 0)
(0.994226 -0.00873873 0)
(0.994158 -0.00843155 0)
(0.994095 -0.00813432 0)
(0.994036 -0.0078472 0)
(0.99398 -0.00757028 0)
(0.993927 -0.00730361 0)
(0.993878 -0.00704717 0)
(0.993831 -0.00680089 0)
(0.993788 -0.00656469 0)
(0.993747 -0.00633846 0)
(0.993709 -0.00612213 0)
(1.00264 -0.000499577 0)
(1.00265 -0.00174472 0)
(1.00269 -0.00277647 0)
(1.00273 -0.00388312 0)
(1.00278 -0.00494094 0)
(1.00283 -0.00598438 0)
(1.00289 -0.0070164 0)
(1.00295 -0.00803552 0)
(1.00301 -0.00904187 0)
(1.00306 -0.0100341 0)
(1.00309 -0.0110099 0)
(1.00312 -0.0119663 0)
(1.00313 -0.0128996 0)
(1.00312 -0.0138059 0)
(1.00309 -0.014681 0)
(1.00304 -0.0155203 0)
(1.00296 -0.0163195 0)
(1.00286 -0.0170741 0)
(1.00272 -0.01778 0)
(1.00257 -0.0184334 0)
(1.00238 -0.0190309 0)
(1.00217 -0.0195696 0)
(1.00193 -0.0200473 0)
(1.00166 -0.0204623 0)
(1.00138 -0.0208134 0)
(1.00107 -0.0211004 0)
(1.00074 -0.0213235 0)
(1.0004 -0.0214835 0)
(1.00005 -0.0215819 0)
(0.999684 -0.0216207 0)
(0.99931 -0.0216024 0)
(0.998932 -0.0215299 0)
(0.99855 -0.0214062 0)
(0.998169 -0.0212349 0)
(0.997789 -0.0210196 0)
(0.997413 -0.0207638 0)
(0.997043 -0.0204714 0)
(0.99668 -0.0201461 0)
(0.996325 -0.0197918 0)
(0.995981 -0.019412 0)
(0.995647 -0.0190102 0)
(0.995325 -0.0185898 0)
(0.995015 -0.018154 0)
(0.994718 -0.0177058 0)
(0.994433 -0.0172483 0)
(0.994162 -0.0167843 0)
(0.993904 -0.0163165 0)
(0.993661 -0.0158473 0)
(0.993434 -0.015379 0)
(0.993222 -0.0149134 0)
(0.993025 -0.0144522 0)
(0.992843 -0.0139968 0)
(0.992673 -0.0135483 0)
(0.992512 -0.0131079 0)
(0.992357 -0.0126763 0)
(0.992207 -0.0122545 0)
(0.992062 -0.0118431 0)
(0.991923 -0.0114428 0)
(0.991791 -0.011054 0)
(0.991667 -0.0106771 0)
(0.99155 -0.0103121 0)
(0.991443 -0.00995936 0)
(0.991343 -0.0096189 0)
(0.991251 -0.00929074 0)
(0.991166 -0.0089749 0)
(0.991088 -0.00867129 0)
(0.991016 -0.00837984 0)
(0.990949 -0.00810046 0)
(0.990888 -0.00783307 0)
(1.00348 -0.000573737 0)
(1.0035 -0.00199668 0)
(1.00355 -0.00318209 0)
(1.0036 -0.00445263 0)
(1.00367 -0.00566607 0)
(1.00375 -0.00686659 0)
(1.00383 -0.00805519 0)
(1.00392 -0.00923093 0)
(1.004 -0.0103945 0)
(1.00407 -0.0115444 0)
(1.00413 -0.0126783 0)
(1.00417 -0.013793 0)
(1.00419 -0.0148845 0)
(1.00419 -0.0159484 0)
(1.00416 -0.0169798 0)
(1.0041 -0.0179735 0)
(1.00401 -0.0189245 0)
(1.00389 -0.0198274 0)
(1.00373 -0.0206772 0)
(1.00353 -0.0214693 0)
(1.00329 -0.0221993 0)
(1.00302 -0.0228636 0)
(1.00271 -0.023459 0)
(1.00237 -0.023983 0)
(1.00199 -0.0244338 0)
(1.00159 -0.0248106 0)
(1.00116 -0.0251131 0)
(1.00071 -0.0253418 0)
(1.00023 -0.025498 0)
(0.999746 -0.0255833 0)
(0.999245 -0.0256004 0)
(0.998735 -0.025552 0)
(0.998219 -0.0254416 0)
(0.997702 -0.0252729 0)
(0.997185 -0.02505 0)
(0.996672 -0.0247772 0)
(0.996166 -0.0244588 0)
(0.995669 -0.0240994 0)
(0.995182 -0.0237035 0)
(0.994708 -0.0232756 0)
(0.994247 -0.0228199 0)
(0.993802 -0.0223408 0)
(0.993372 -0.0218422 0)
(0.99296 -0.0213279 0)
(0.992564 -0.0208013 0)
(0.992186 -0.0202653 0)
(0.991825 -0.0197229 0)
(0.991481 -0.0191764 0)
(0.991152 -0.0186283 0)
(0.990839 -0.0180807 0)
(0.99054 -0.0175357 0)
(0.990256 -0.0169953 0)
(0.989987 -0.0164615 0)
(0.989737 -0.0159358 0)
(0.989505 -0.0154197 0)
(0.989292 -0.0149143 0)
(0.989098 -0.0144208 0)
(0.988919 -0.0139397 0)
(0.988755 -0.0134719 0)
(0.988602 -0.0130177 0)
(0.988459 -0.0125776 0)
(0.988325 -0.012152 0)
(0.9882 -0.011741 0)
(0.988082 -0.0113447 0)
(0.987972 -0.0109631 0)
(0.987868 -0.0105963 0)
(0.987772 -0.0102442 0)
(0.987682 -0.00990652 0)
(0.987598 -0.00958334 0)
(1.00439 -0.000641959 0)
(1.00441 -0.00222531 0)
(1.00448 -0.00354942 0)
(1.00455 -0.00496887 0)
(1.00464 -0.00632409 0)
(1.00474 -0.00766857 0)
(1.00485 -0.00900122 0)
(1.00496 -0.010322 0)
(1.00507 -0.0116319 0)
(1.00517 -0.0129299 0)
(1.00526 -0.0142133 0)
(1.00532 -0.015479 0)
(1.00536 -0.0167227 0)
(1.00538 -0.0179396 0)
(1.00536 -0.0191245 0)
(1.0053 -0.0202715 0)
(1.0052 -0.0213747 0)
(1.00505 -0.0224282 0)
(1.00486 -0.0234261 0)
(1.00463 -0.0243627 0)
(1.00434 -0.0252328 0)
(1.00401 -0.0260317 0)
(1.00363 -0.0267553 0)
(1.00321 -0.0274002 0)
(1.00274 -0.0279639 0)
(1.00224 -0.0284444 0)
(1.0017 -0.0288409 0)
(1.00112 -0.0291532 0)
(1.00052 -0.0293821 0)
(0.999898 -0.029529 0)
(0.999255 -0.0295961 0)
(0.9986 -0.0295864 0)
(0.997935 -0.0295033 0)
(0.997265 -0.0293507 0)
(0.996594 -0.0291331 0)
(0.995926 -0.0288551 0)
(0.995265 -0.0285216 0)
(0.994615 -0.0281375 0)
(0.993976 -0.0277077 0)
(0.993354 -0.0272372 0)
(0.992748 -0.0267309 0)
(0.992162 -0.0261935 0)
(0.991595 -0.0256295 0)
(0.99105 -0.0250434 0)
(0.990528 -0.0244394 0)
(0.990027 -0.0238216 0)
(0.98955 -0.0231941 0)
(0.989097 -0.0225604 0)
(0.988667 -0.0219241 0)
(0.988263 -0.0212881 0)
(0.987884 -0.0206552 0)
(0.98753 -0.0200276 0)
(0.987198 -0.0194072 0)
(0.986884 -0.0187958 0)
(0.986587 -0.0181947 0)
(0.986304 -0.0176055 0)
(0.986034 -0.0170291 0)
(0.985778 -0.0164668 0)
(0.985536 -0.0159192 0)
(0.98531 -0.0153871 0)
(0.985098 -0.0148711 0)
(0.984901 -0.0143714 0)
(0.984718 -0.0138883 0)
(0.984549 -0.0134221 0)
(0.984392 -0.0129728 0)
(0.984246 -0.0125404 0)
(0.984111 -0.0121249 0)
(0.983986 -0.0117262 0)
(0.98387 -0.0113443 0)
(1.00535 -0.000704399 0)
(1.00538 -0.00243167 0)
(1.00546 -0.00388038 0)
(1.00555 -0.00543454 0)
(1.00566 -0.00691837 0)
(1.0058 -0.00839428 0)
(1.00594 -0.00985913 0)
(1.00608 -0.0113138 0)
(1.00622 -0.0127601 0)
(1.00635 -0.0141968 0)
(1.00647 -0.0156217 0)
(1.00656 -0.0170315 0)
(1.00663 -0.0184219 0)
(1.00666 -0.019788 0)
(1.00666 -0.0211239 0)
(1.0066 -0.0224234 0)
(1.0065 -0.0236801 0)
(1.00635 -0.0248871 0)
(1.00613 -0.0260379 0)
(1.00586 -0.0271257 0)
(1.00553 -0.0281445 0)
(1.00515 -0.0290884 0)
(1.0047 -0.0299522 0)
(1.00419 -0.0307316 0)
(1.00363 -0.0314227 0)
(1.00302 -0.0320228 0)
(1.00237 -0.0325301 0)
(1.00167 -0.0329435 0)
(1.00093 -0.033263 0)
(1.00016 -0.0334897 0)
(0.999371 -0.0336252 0)
(0.998557 -0.0336722 0)
(0.997728 -0.033634 0)
(0.996891 -0.0335144 0)
(0.99605 -0.0333179 0)
(0.99521 -0.0330494 0)
(0.994377 -0.032714 0)
(0.993554 -0.0323173 0)
(0.992745 -0.0318648 0)
(0.991954 -0.0313625 0)
(0.991182 -0.0308161 0)
(0.990433 -0.0302313 0)
(0.989708 -0.0296138 0)
(0.989009 -0.028969 0)
(0.988337 -0.0283018 0)
(0.987692 -0.0276169 0)
(0.987074 -0.0269184 0)
(0.986485 -0.02621 0)
(0.985922 -0.0254952 0)
(0.985387 -0.0247771 0)
(0.984876 -0.0240587 0)
(0.984391 -0.023343 0)
(0.983933 -0.0226326 0)
(0.983503 -0.0219302 0)
(0.983101 -0.0212379 0)
(0.982729 -0.0205578 0)
(0.982385 -0.0198913 0)
(0.982066 -0.0192399 0)
(0.981771 -0.0186046 0)
(0.981495 -0.0179865 0)
(0.981237 -0.0173862 0)
(0.980996 -0.0168044 0)
(0.980771 -0.0162415 0)
(0.980559 -0.0156979 0)
(0.980362 -0.0151738 0)
(0.980177 -0.0146691 0)
(0.980004 -0.0141839 0)
(0.979844 -0.0137183 0)
(0.979694 -0.013272 0)
(1.00634 -0.000761184 0)
(1.00638 -0.00261721 0)
(1.00647 -0.00417794 0)
(1.00658 -0.0058538 0)
(1.00673 -0.00745406 0)
(1.00689 -0.00904987 0)
(1.00706 -0.010636 0)
(1.00724 -0.0122145 0)
(1.00742 -0.0137876 0)
(1.00759 -0.0153547 0)
(1.00775 -0.0169136 0)
(1.00788 -0.0184612 0)
(1.00797 -0.0199934 0)
(1.00803 -0.021505 0)
(1.00804 -0.02299 0)
(1.008 -0.0244419 0)
(1.00791 -0.0258535 0)
(1.00775 -0.0272176 0)
(1.00752 -0.0285266 0)
(1.00723 -0.0297731 0)
(1.00686 -0.0309498 0)
(1.00642 -0.03205 0)
(1.00591 -0.0330672 0)
(1.00533 -0.0339958 0)
(1.00468 -0.034831 0)
(1.00396 -0.0355686 0)
(1.00319 -0.0362058 0)
(1.00236 -0.0367406 0)
(1.00149 -0.0371718 0)
(1.00057 -0.0374997 0)
(0.999615 -0.0377252 0)
(0.998633 -0.0378503 0)
(0.99763 -0.0378779 0)
(0.996613 -0.0378116 0)
(0.995587 -0.0376559 0)
(0.99456 -0.0374156 0)
(0.993537 -0.0370964 0)
(0.992524 -0.0367041 0)
(0.991525 -0.0362447 0)
(0.990545 -0.0357246 0)
(0.989587 -0.0351498 0)
(0.988656 -0.0345267 0)
(0.987753 -0.0338611 0)
(0.986881 -0.033159 0)
(0.986041 -0.0324259 0)
(0.985235 -0.0316677 0)
(0.984463 -0.0308897 0)
(0.983726 -0.0300972 0)
(0.983026 -0.0292952 0)
(0.982362 -0.0284882 0)
(0.981735 -0.0276804 0)
(0.981145 -0.0268751 0)
(0.98059 -0.0260754 0)
(0.980066 -0.0252838 0)
(0.979572 -0.0245024 0)
(0.979103 -0.0237334 0)
(0.978659 -0.0229786 0)
(0.978239 -0.0222395 0)
(0.977844 -0.0215177 0)
(0.977473 -0.0208143 0)
(0.977127 -0.0201303 0)
(0.976805 -0.0194665 0)
(0.976504 -0.0188235 0)
(0.976225 -0.0182016 0)
(0.975966 -0.0176013 0)
(0.975725 -0.0170227 0)
(0.975501 -0.0164659 0)
(0.975292 -0.015931 0)
(0.975099 -0.0154179 0)
(1.00735 -0.000812656 0)
(1.0074 -0.00278392 0)
(1.0075 -0.00444586 0)
(1.00764 -0.00623182 0)
(1.00781 -0.00793764 0)
(1.00801 -0.00964303 0)
(1.00822 -0.0113406 0)
(1.00844 -0.0130337 0)
(1.00866 -0.0147254 0)
(1.00887 -0.0164151 0)
(1.00907 -0.0181012 0)
(1.00924 -0.019781 0)
(1.00937 -0.0214505 0)
(1.00946 -0.0231044 0)
(1.0095 -0.0247368 0)
(1.00949 -0.0263408 0)
(1.0094 -0.0279091 0)
(1.00925 -0.0294337 0)
(1.00901 -0.0309064 0)
(1.0087 -0.0323191 0)
(1.0083 -0.0336635 0)
(1.00782 -0.0349316 0)
(1.00726 -0.036116 0)
(1.0066 -0.0372096 0)
(1.00587 -0.0382064 0)
(1.00506 -0.039101 0)
(1.00417 -0.0398891 0)
(1.00322 -0.0405673 0)
(1.0022 -0.0411333 0)
(1.00113 -0.0415862 0)
(1.00001 -0.041926 0)
(0.998858 -0.0421538 0)
(0.997672 -0.0422719 0)
(0.996463 -0.0422834 0)
(0.995241 -0.0421924 0)
(0.994012 -0.0420038 0)
(0.992783 -0.041723 0)
(0.991562 -0.0413559 0)
(0.990355 -0.040909 0)
(0.989167 -0.040389 0)
(0.988003 -0.0398027 0)
(0.986868 -0.0391573 0)
(0.985765 -0.0384599 0)
(0.984697 -0.0377176 0)
(0.983667 -0.0369372 0)
(0.982675 -0.0361252 0)
(0.981723 -0.0352876 0)
(0.980813 -0.0344299 0)
(0.979943 -0.0335571 0)
(0.979114 -0.0326738 0)
(0.978324 -0.0317842 0)
(0.977574 -0.0308925 0)
(0.976862 -0.0300025 0)
(0.97619 -0.0291179 0)
(0.97556 -0.028242 0)
(0.97497 -0.0273778 0)
(0.974422 -0.0265276 0)
(0.97391 -0.0256937 0)
(0.973434 -0.0248778 0)
(0.972989 -0.0240813 0)
(0.972573 -0.0233057 0)
(0.972184 -0.022552 0)
(0.971819 -0.021821 0)
(0.971479 -0.0211134 0)
(0.97116 -0.0204298 0)
(0.970863 -0.0197704 0)
(0.970586 -0.0191353 0)
(0.970328 -0.0185249 0)
(0.970087 -0.017939 0)
(1.00837 -0.000859331 0)
(1.00842 -0.00293404 0)
(1.00855 -0.00468793 0)
(1.00871 -0.00657381 0)
(1.00891 -0.00837566 0)
(1.00914 -0.0101815 0)
(1.00939 -0.0119819 0)
(1.00965 -0.0137815 0)
(1.00992 -0.015584 0)
(1.01018 -0.0173893 0)
(1.01042 -0.0191965 0)
(1.01063 -0.0210032 0)
(1.01081 -0.0228056 0)
(1.01095 -0.0245987 0)
(1.01102 -0.0263767 0)
(1.01104 -0.0281326 0)
(1.01098 -0.0298588 0)
(1.01084 -0.031547 0)
(1.01061 -0.0331886 0)
(1.01029 -0.0347745 0)
(1.00987 -0.0362956 0)
(1.00936 -0.0377431 0)
(1.00875 -0.0391081 0)
(1.00803 -0.0403826 0)
(1.00722 -0.0415588 0)
(1.00632 -0.0426301 0)
(1.00533 -0.0435905 0)
(1.00425 -0.0444353 0)
(1.0031 -0.0451608 0)
(1.00187 -0.0457646 0)
(1.00059 -0.0462454 0)
(0.999259 -0.0466034 0)
(0.997885 -0.0468397 0)
(0.996478 -0.0469567 0)
(0.995048 -0.0469577 0)
(0.993605 -0.0468471 0)
(0.992157 -0.0466302 0)
(0.990713 -0.0463128 0)
(0.989281 -0.0459016 0)
(0.987867 -0.0454035 0)
(0.986478 -0.0448259 0)
(0.98512 -0.0441761 0)
(0.983796 -0.0434618 0)
(0.982512 -0.0426903 0)
(0.981271 -0.0418689 0)
(0.980075 -0.0410049 0)
(0.978926 -0.0401054 0)
(0.977826 -0.0391775 0)
(0.976776 -0.038228 0)
(0.975777 -0.0372632 0)
(0.974829 -0.0362891 0)
(0.973933 -0.0353108 0)
(0.973086 -0.0343328 0)
(0.972287 -0.033359 0)
(0.971531 -0.0323927 0)
(0.970816 -0.031437 0)
(0.970139 -0.0304947 0)
(0.9695 -0.0295683 0)
(0.968898 -0.0286601 0)
(0.968333 -0.0277721 0)
(0.967804 -0.026906 0)
(0.967311 -0.026063 0)
(0.96685 -0.0252442 0)
(0.966422 -0.0244507 0)
(0.966023 -0.0236829 0)
(0.965651 -0.0229415 0)
(0.965305 -0.0222267 0)
(0.964984 -0.0215388 0)
(0.964685 -0.020878 0)
(1.00938 -0.000901739 0)
(1.00945 -0.00306951 0)
(1.00959 -0.00490715 0)
(1.00977 -0.00688389 0)
(1.01001 -0.00877326 0)
(1.01027 -0.0106714 0)
(1.01057 -0.0125667 0)
(1.01088 -0.0144653 0)
(1.01119 -0.0163714 0)
(1.0115 -0.0182858 0)
(1.01179 -0.0202081 0)
(1.01206 -0.0221364 0)
(1.01229 -0.0240672 0)
(1.01247 -0.0259962 0)
(1.01259 -0.0279175 0)
(1.01265 -0.0298243 0)
(1.01262 -0.0317089 0)
(1.01251 -0.033563 0)
(1.01229 -0.0353773 0)
(1.01198 -0.0371424 0)
(1.01156 -0.0388483 0)
(1.01103 -0.0404853 0)
(1.01038 -0.0420436 0)
(1.00962 -0.0435135 0)
(1.00874 -0.0448862 0)
(1.00776 -0.0461534 0)
(1.00667 -0.0473076 0)
(1.00548 -0.0483424 0)
(1.00419 -0.0492525 0)
(1.00282 -0.0500339 0)
(1.00138 -0.0506838 0)
(0.999868 -0.0512008 0)
(0.998302 -0.0515846 0)
(0.996692 -0.0518365 0)
(0.995049 -0.051959 0)
(0.993383 -0.0519556 0)
(0.991705 -0.0518311 0)
(0.990025 -0.0515911 0)
(0.988352 -0.051242 0)
(0.986695 -0.0507908 0)
(0.985061 -0.0502453 0)
(0.983459 -0.0496133 0)
(0.981893 -0.0489033 0)
(0.98037 -0.0481238 0)
(0.978894 -0.0472835 0)
(0.977468 -0.0463907 0)
(0.976095 -0.0454536 0)
(0.974778 -0.0444796 0)
(0.973516 -0.0434758 0)
(0.972311 -0.0424484 0)
(0.971162 -0.0414036 0)
(0.970067 -0.0403469 0)
(0.969027 -0.0392838 0)
(0.968042 -0.0382196 0)
(0.967112 -0.0371592 0)
(0.966239 -0.0361069 0)
(0.965421 -0.0350665 0)
(0.964656 -0.0340413 0)
(0.963941 -0.033034 0)
(0.963272 -0.032047 0)
(0.962646 -0.0310824 0)
(0.962059 -0.030142 0)
(0.96151 -0.0292273 0)
(0.960997 -0.0283396 0)
(0.960517 -0.0274798 0)
(0.960069 -0.0266485 0)
(0.959652 -0.0258464 0)
(0.959262 -0.0250739 0)
(0.958899 -0.0243313 0)
(1.01038 -0.000940286 0)
(1.01046 -0.00319161 0)
(1.01062 -0.0051053 0)
(1.01083 -0.00716447 0)
(1.0111 -0.00913347 0)
(1.0114 -0.0111162 0)
(1.01174 -0.013099 0)
(1.0121 -0.0150892 0)
(1.01246 -0.0170921 0)
(1.01283 -0.019109 0)
(1.01318 -0.0211402 0)
(1.01351 -0.0231844 0)
(1.01379 -0.0252389 0)
(1.01403 -0.0272994 0)
(1.01421 -0.0293608 0)
(1.01431 -0.0314165 0)
(1.01432 -0.0334589 0)
(1.01425 -0.0354794 0)
(1.01406 -0.0374689 0)
(1.01377 -0.0394174 0)
(1.01336 -0.0413144 0)
(1.01282 -0.0431494 0)
(1.01215 -0.0449114 0)
(1.01136 -0.0465899 0)
(1.01043 -0.0481745 0)
(1.00938 -0.0496554 0)
(1.0082 -0.0510235 0)
(1.00691 -0.0522707 0)
(1.0055 -0.0533899 0)
(1.00399 -0.0543751 0)
(1.00239 -0.0552218 0)
(1.00071 -0.0559268 0)
(0.998953 -0.0564884 0)
(0.997139 -0.0569062 0)
(0.995278 -0.0571815 0)
(0.993383 -0.0573168 0)
(0.991466 -0.0573158 0)
(0.989538 -0.0571835 0)
(0.98761 -0.0569259 0)
(0.985694 -0.0565499 0)
(0.983799 -0.0560633 0)
(0.981933 -0.0554741 0)
(0.980105 -0.0547911 0)
(0.978322 -0.054023 0)
(0.976589 -0.0531787 0)
(0.974912 -0.0522669 0)
(0.973295 -0.0512966 0)
(0.97174 -0.0502766 0)
(0.97025 -0.0492157 0)
(0.968826 -0.0481223 0)
(0.96747 -0.0470046 0)
(0.966182 -0.0458699 0)
(0.964961 -0.044725 0)
(0.963806 -0.0435756 0)
(0.962713 -0.0424266 0)
(0.961679 -0.0412827 0)
(0.9607 -0.0401482 0)
(0.959775 -0.0390269 0)
(0.958903 -0.0379224 0)
(0.958083 -0.0368379 0)
(0.957315 -0.0357759 0)
(0.956597 -0.0347388 0)
(0.955925 -0.0337283 0)
(0.955299 -0.0327461 0)
(0.954715 -0.0317933 0)
(0.954171 -0.030871 0)
(0.953664 -0.0299798 0)
(0.953192 -0.0291205 0)
(0.952753 -0.0282936 0)
(1.01137 -0.000975165 0)
(1.01146 -0.00330096 0)
(1.01164 -0.00528308 0)
(1.01187 -0.00741647 0)
(1.01217 -0.00945738 0)
(1.01252 -0.0115172 0)
(1.0129 -0.0135798 0)
(1.01331 -0.0156544 0)
(1.01373 -0.017747 0)
(1.01416 -0.0198594 0)
(1.01457 -0.0219929 0)
(1.01496 -0.0241468 0)
(1.01531 -0.0263191 0)
(1.01561 -0.0285062 0)
(1.01584 -0.0307034 0)
(1.016 -0.0329044 0)
(1.01608 -0.0351021 0)
(1.01605 -0.0372882 0)
(1.01591 -0.0394532 0)
(1.01564 -0.0415872 0)
(1.01525 -0.0436792 0)
(1.01472 -0.045718 0)
(1.01405 -0.047692 0)
(1.01324 -0.0495895 0)
(1.01228 -0.0513989 0)
(1.01118 -0.053109 0)
(1.00993 -0.0547089 0)
(1.00855 -0.0561888 0)
(1.00703 -0.0575397 0)
(1.0054 -0.0587536 0)
(1.00365 -0.0598241 0)
(1.0018 -0.060746 0)
(0.999858 -0.0615156 0)
(0.997842 -0.062131 0)
(0.995764 -0.0625914 0)
(0.993637 -0.062898 0)
(0.991475 -0.0630533 0)
(0.989291 -0.0630611 0)
(0.987098 -0.0629268 0)
(0.98491 -0.0626566 0)
(0.982737 -0.0622581 0)
(0.980591 -0.0617393 0)
(0.97848 -0.0611093 0)
(0.976415 -0.0603774 0)
(0.974402 -0.0595538 0)
(0.972448 -0.0586485 0)
(0.970558 -0.0576717 0)
(0.968737 -0.0566332 0)
(0.966987 -0.0555422 0)
(0.965309 -0.0544073 0)
(0.963705 -0.0532367 0)
(0.962174 -0.052038 0)
(0.960715 -0.0508187 0)
(0.959329 -0.049586 0)
(0.958016 -0.048347 0)
(0.956778 -0.0471081 0)
(0.955614 -0.045875 0)
(0.954522 -0.0446524 0)
(0.953498 -0.0434447 0)
(0.952539 -0.0422556 0)
(0.95164 -0.0410884 0)
(0.950798 -0.039946 0)
(0.950009 -0.0388307 0)
(0.94927 -0.0377448 0)
(0.94858 -0.03669 0)
(0.947935 -0.0356674 0)
(0.947334 -0.0346784 0)
(0.946773 -0.0337237 0)
(0.94625 -0.0328041 0)
(1.01234 -0.00100636 0)
(1.01244 -0.00339756 0)
(1.01264 -0.00544044 0)
(1.0129 -0.0076398 0)
(1.01323 -0.00974485 0)
(1.01362 -0.0118738 0)
(1.01405 -0.0140087 0)
(1.01451 -0.0161602 0)
(1.01499 -0.0183347 0)
(1.01548 -0.0205354 0)
(1.01595 -0.0227639 0)
(1.01641 -0.0250206 0)
(1.01683 -0.027304 0)
(1.0172 -0.0296114 0)
(1.0175 -0.0319386 0)
(1.01773 -0.03428 0)
(1.01786 -0.036629 0)
(1.01789 -0.0389774 0)
(1.01781 -0.0413162 0)
(1.01759 -0.0436353 0)
(1.01723 -0.0459236 0)
(1.01673 -0.0481695 0)
(1.01607 -0.0503608 0)
(1.01526 -0.0524848 0)
(1.01428 -0.0545289 0)
(1.01314 -0.0564804 0)
(1.01185 -0.0583272 0)
(1.01039 -0.0600574 0)
(1.00878 -0.0616602 0)
(1.00703 -0.0631258 0)
(1.00515 -0.0644454 0)
(1.00315 -0.0656117 0)
(1.00103 -0.066619 0)
(0.998824 -0.0674628 0)
(0.996532 -0.0681408 0)
(0.994175 -0.0686521 0)
(0.991766 -0.0689974 0)
(0.989321 -0.0691794 0)
(0.986856 -0.069202 0)
(0.984384 -0.0690708 0)
(0.98192 -0.0687924 0)
(0.979476 -0.0683748 0)
(0.977064 -0.0678268 0)
(0.974696 -0.0671579 0)
(0.972381 -0.0663781 0)
(0.970128 -0.0654977 0)
(0.967942 -0.0645271 0)
(0.965832 -0.0634768 0)
(0.963799 -0.0623576 0)
(0.961849 -0.0611803 0)
(0.959982 -0.0599555 0)
(0.958202 -0.0586933 0)
(0.956509 -0.057403 0)
(0.954903 -0.0560931 0)
(0.953381 -0.0547708 0)
(0.95194 -0.0534429 0)
(0.950575 -0.0521155 0)
(0.949283 -0.0507946 0)
(0.948064 -0.0494853 0)
(0.946917 -0.0481927 0)
(0.945839 -0.0469207 0)
(0.94483 -0.0456731 0)
(0.943886 -0.0444528 0)
(0.943004 -0.0432624 0)
(0.942181 -0.042104 0)
(0.941413 -0.0409794 0)
(0.940697 -0.03989 0)
(0.94003 -0.038837 0)
(0.939409 -0.0378215 0)
(1.01329 -0.00103375 0)
(1.0134 -0.00348123 0)
(1.01361 -0.00557713 0)
(1.0139 -0.00783414 0)
(1.01427 -0.00999537 0)
(1.0147 -0.0121856 0)
(1.01518 -0.0143847 0)
(1.01569 -0.0166051 0)
(1.01623 -0.0188538 0)
(1.01678 -0.0211347 0)
(1.01733 -0.0234504 0)
(1.01785 -0.025802 0)
(1.01834 -0.028189 0)
(1.01879 -0.0306093 0)
(1.01917 -0.0330596 0)
(1.01947 -0.0355349 0)
(1.01968 -0.0380292 0)
(1.01978 -0.040535 0)
(1.01976 -0.0430436 0)
(1.0196 -0.0455449 0)
(1.01929 -0.0480282 0)
(1.01883 -0.0504815 0)
(1.0182 -0.0528922 0)
(1.0174 -0.0552471 0)
(1.01643 -0.0575325 0)
(1.01528 -0.0597347 0)
(1.01394 -0.06184 0)
(1.01244 -0.0638351 0)
(1.01076 -0.0657073 0)
(1.00891 -0.0674446 0)
(1.00691 -0.0690361 0)
(1.00477 -0.0704723 0)
(1.00249 -0.0717448 0)
(1.0001 -0.0728472 0)
(0.997603 -0.0737746 0)
(0.99502 -0.0745239 0)
(0.992367 -0.075094 0)
(0.98966 -0.0754854 0)
(0.986917 -0.0757004 0)
(0.984154 -0.0757433 0)
(0.981387 -0.0756197 0)
(0.978632 -0.0753368 0)
(0.975903 -0.0749027 0)
(0.973212 -0.0743272 0)
(0.970573 -0.0736205 0)
(0.967995 -0.0727939 0)
(0.965487 -0.0718591 0)
(0.963056 -0.0708279 0)
(0.960709 -0.0697121 0)
(0.95845 -0.0685227 0)
(0.956282 -0.0672705 0)
(0.954206 -0.0659656 0)
(0.952223 -0.0646178 0)
(0.950332 -0.0632369 0)
(0.948536 -0.0618326 0)
(0.946835 -0.0604139 0)
(0.94523 -0.0589892 0)
(0.943721 -0.0575656 0)
(0.942304 -0.0561496 0)
(0.940975 -0.0547466 0)
(0.939727 -0.0533618 0)
(0.938557 -0.0519997 0)
(0.93746 -0.0506641 0)
(0.936434 -0.0493584 0)
(0.935473 -0.0480856 0)
(0.934576 -0.0468479 0)
(0.933738 -0.0456473 0)
(0.932957 -0.0444854 0)
(0.932229 -0.0433638 0)
(1.01421 -0.00105728 0)
(1.01433 -0.00355197 0)
(1.01456 -0.00569317 0)
(1.01488 -0.0079995 0)
(1.01528 -0.0102089 0)
(1.01575 -0.0124523 0)
(1.01628 -0.0147076 0)
(1.01685 -0.0169887 0)
(1.01745 -0.0193033 0)
(1.01806 -0.0216561 0)
(1.01868 -0.0240507 0)
(1.01928 -0.0264889 0)
(1.01985 -0.0289711 0)
(1.02037 -0.031496 0)
(1.02083 -0.0340612 0)
(1.02122 -0.0366627 0)
(1.02151 -0.039295 0)
(1.02168 -0.0419513 0)
(1.02174 -0.0446235 0)
(1.02165 -0.0473022 0)
(1.02141 -0.0499765 0)
(1.02101 -0.0526348 0)
(1.02043 -0.0552642 0)
(1.01966 -0.057851 0)
(1.01871 -0.060381 0)
(1.01756 -0.0628396 0)
(1.01621 -0.0652118 0)
(1.01467 -0.0674828 0)
(1.01294 -0.0696382 0)
(1.01102 -0.071664 0)
(1.00892 -0.0735473 0)
(1.00666 -0.075276 0)
(1.00424 -0.0768396 0)
(1.00168 -0.0782288 0)
(0.998988 -0.0794364 0)
(0.996189 -0.0804567 0)
(0.993298 -0.0812859 0)
(0.990332 -0.0819225 0)
(0.987312 -0.0823667 0)
(0.984254 -0.0826207 0)
(0.981178 -0.0826887 0)
(0.9781 -0.0825766 0)
(0.975038 -0.0822918 0)
(0.972007 -0.0818431 0)
(0.969023 -0.0812407 0)
(0.966097 -0.0804953 0)
(0.963242 -0.0796186 0)
(0.960467 -0.0786223 0)
(0.957781 -0.077519 0)
(0.955189 -0.0763215 0)
(0.952697 -0.0750431 0)
(0.95031 -0.0736968 0)
(0.94803 -0.0722953 0)
(0.94586 -0.0708503 0)
(0.943798 -0.0693722 0)
(0.941843 -0.0678705 0)
(0.939989 -0.066354 0)
(0.938233 -0.064831 0)
(0.936573 -0.0633094 0)
(0.935008 -0.0617964 0)
(0.933537 -0.0602985 0)
(0.932156 -0.058821 0)
(0.930864 -0.0573689 0)
(0.929655 -0.0559462 0)
(0.928526 -0.0545564 0)
(0.927473 -0.0532025 0)
(0.92649 -0.0518868 0)
(0.925575 -0.0506117 0)