/*--------------------------------*- C++ -*----------------------------------*\
  =========                 |
  \\      /  F ield         | OpenFOAM: The Open Source CFD Toolbox
   \\    /   O peration     | Website:  https://openfoam.org
    \\  /    A nd           | Version:  10
     \\/     M anipulation  |
\*---------------------------------------------------------------------------*/
FoamFile
{
    format      ascii;
    class       volVectorField;
    location    "490";
    object      U;
}
// * * * * * * * * * * * * * * * * * * * * * * * * * * * * * * * * * * * * * //

dimensions      [0 1 -1 0 0 0 0];

internalField   nonuniform List<vector> 
66268
(
(0.999999 -4.66421e-05 0)
(0.999999 -0.000170673 0)
(0.999999 -0.000271545 0)
(0.999999 -0.000376633 0)
(0.999999 -0.000478389 0)
(0.999999 -0.000577295 0)
(0.999999 -0.000673959 0)
(1 -0.000768379 0)
(1 -0.000860407 0)
(1 -0.000949883 0)
(1 -0.00103659 0)
(1 -0.00112028 0)
(1 -0.00120065 0)
(1 -0.0012774 0)
(1 -0.00135022 0)
(1 -0.00141878 0)
(1 -0.00148279 0)
(1 -0.00154197 0)
(1 -0.00159609 0)
(1 -0.00164492 0)
(1 -0.00168832 0)
(1 -0.00172616 0)
(1 -0.00175838 0)
(1 -0.00178497 0)
(1 -0.00180596 0)
(1 -0.00182144 0)
(1 -0.00183155 0)
(1 -0.00183646 0)
(1 -0.00183639 0)
(1 -0.0018316 0)
(1 -0.00182236 0)
(1 -0.00180898 0)
(1 -0.00179177 0)
(1 -0.00177107 0)
(1 -0.00174722 0)
(1 -0.00172055 0)
(1 -0.00169139 0)
(1 -0.00166008 0)
(1 -0.00162688 0)
(1 -0.00159208 0)
(1 -0.0015559 0)
(1.00001 -0.00151853 0)
(1.00001 -0.00148016 0)
(1.00001 -0.00144094 0)
(1.00001 -0.00140103 0)
(1.00001 -0.00136061 0)
(1 -0.00131986 0)
(0.999999 -0.00127901 0)
(0.999992 -0.00123834 0)
(0.99998 -0.00119815 0)
(0.999964 -0.00115877 0)
(0.999947 -0.00112044 0)
(0.999929 -0.00108332 0)
(0.999914 -0.00104743 0)
(0.999904 -0.00101267 0)
(0.9999 -0.00097891 0)
(0.9999 -0.000946031 0)
(0.999906 -0.000913949 0)
(0.999913 -0.000882644 0)
(0.999923 -0.000852141 0)
(0.999933 -0.000822496 0)
(0.999942 -0.000793773 0)
(0.999951 -0.000766033 0)
(0.999958 -0.000739324 0)
(0.999964 -0.000713679 0)
(0.999969 -0.000689109 0)
(0.999974 -0.000665616 0)
(0.999977 -0.000643223 0)
(0.99998 -0.000621947 0)
(1.0002 -0.00014259 0)
(1.0002 -0.000513965 0)
(1.0002 -0.000815249 0)
(1.00021 -0.00113206 0)
(1.00021 -0.00143713 0)
(1.00021 -0.00173293 0)
(1.00021 -0.00202162 0)
(1.00022 -0.00230285 0)
(1.00022 -0.00257612 0)
(1.00022 -0.00284093 0)
(1.00022 -0.00309657 0)
(1.00022 -0.00334224 0)
(1.00022 -0.00357705 0)
(1.00022 -0.00380005 0)
(1.00021 -0.00401032 0)
(1.00021 -0.00420694 0)
(1.0002 -0.00438905 0)
(1.00019 -0.00455588 0)
(1.00018 -0.00470675 0)
(1.00017 -0.00484113 0)
(1.00015 -0.00495861 0)
(1.00014 -0.00505894 0)
(1.00012 -0.00514201 0)
(1.0001 -0.0052079 0)
(1.00008 -0.00525679 0)
(1.00006 -0.00528906 0)
(1.00004 -0.00530518 0)
(1.00001 -0.00530577 0)
(0.999987 -0.00529155 0)
(0.999961 -0.00526337 0)
(0.999935 -0.00522213 0)
(0.999909 -0.00516875 0)
(0.999882 -0.00510416 0)
(0.999855 -0.00502933 0)
(0.999829 -0.00494521 0)
(0.999802 -0.00485274 0)
(0.999776 -0.00475286 0)
(0.99975 -0.00464648 0)
(0.999724 -0.0045345 0)
(0.999699 -0.00441782 0)
(0.999674 -0.00429735 0)
(0.99965 -0.00417398 0)
(0.999625 -0.0040486 0)
(0.999602 -0.00392205 0)
(0.999579 -0.0037951 0)
(0.999557 -0.00366844 0)
(0.999538 -0.00354266 0)
(0.999522 -0.00341823 0)
(0.999512 -0.00329549 0)
(0.999508 -0.00317466 0)
(0.999511 -0.00305586 0)
(0.999517 -0.00293917 0)
(0.999524 -0.00282472 0)
(0.999528 -0.00271269 0)
(0.999527 -0.00260333 0)
(0.999518 -0.00249692 0)
(0.999503 -0.00239367 0)
(0.999482 -0.00229373 0)
(0.999459 -0.00219713 0)
(0.999435 -0.00210388 0)
(0.999412 -0.00201392 0)
(0.99939 -0.00192718 0)
(0.999371 -0.00184359 0)
(0.999354 -0.00176307 0)
(0.999339 -0.00168559 0)
(0.999326 -0.00161108 0)
(0.999315 -0.0015395 0)
(0.999306 -0.00147083 0)
(0.999298 -0.00140511 0)
(1.00062 -0.000237346 0)
(1.00062 -0.000843648 0)
(1.00062 -0.00133511 0)
(1.00063 -0.00185697 0)
(1.00064 -0.00235651 0)
(1.00064 -0.00284056 0)
(1.00065 -0.00331285 0)
(1.00065 -0.00377232 0)
(1.00066 -0.00421818 0)
(1.00066 -0.00464957 0)
(1.00066 -0.00506531 0)
(1.00066 -0.00546402 0)
(1.00065 -0.00584421 0)
(1.00064 -0.00620434 0)
(1.00062 -0.00654286 0)
(1.0006 -0.00685825 0)
(1.00057 -0.00714914 0)
(1.00054 -0.00741426 0)
(1.00051 -0.00765254 0)
(1.00047 -0.00786314 0)
(1.00042 -0.00804542 0)
(1.00037 -0.00819902 0)
(1.00031 -0.00832382 0)
(1.00025 -0.00841998 0)
(1.00019 -0.0084879 0)
(1.00012 -0.00852821 0)
(1.00005 -0.00854178 0)
(0.999973 -0.00852967 0)
(0.999897 -0.0084931 0)
(0.99982 -0.0084335 0)
(0.999741 -0.00835241 0)
(0.999663 -0.00825141 0)
(0.999584 -0.00813217 0)
(0.999505 -0.00799637 0)
(0.999428 -0.00784576 0)
(0.999351 -0.00768206 0)
(0.999276 -0.00750701 0)
(0.999203 -0.00732231 0)
(0.999131 -0.00712957 0)
(0.999062 -0.00693033 0)
(0.998995 -0.00672596 0)
(0.998931 -0.0065177 0)
(0.99887 -0.00630662 0)
(0.998811 -0.00609366 0)
(0.998755 -0.00587964 0)
(0.998702 -0.0056653 0)
(0.99865 -0.00545133 0)
(0.998599 -0.00523836 0)
(0.998548 -0.00502701 0)
(0.998494 -0.00481792 0)
(0.99844 -0.0046117 0)
(0.998385 -0.00440896 0)
(0.998333 -0.00421023 0)
(0.998287 -0.00401593 0)
(0.998249 -0.0038264 0)
(0.998219 -0.00364185 0)
(0.998199 -0.00346248 0)
(0.998184 -0.00328844 0)
(0.998175 -0.0031199 0)
(0.998168 -0.00295697 0)
(0.998162 -0.00279978 0)
(0.998156 -0.00264839 0)
(0.99815 -0.00250282 0)
(0.998143 -0.00236307 0)
(0.998136 -0.00222909 0)
(0.998128 -0.0021008 0)
(0.99812 -0.0019781 0)
(0.998112 -0.00186093 0)
(0.998104 -0.00174918 0)
(1.00119 -0.000328724 0)
(1.00119 -0.00115749 0)
(1.0012 -0.00183172 0)
(1.00121 -0.00255112 0)
(1.00122 -0.00323633 0)
(1.00124 -0.00390121 0)
(1.00125 -0.00455007 0)
(1.00126 -0.00518107 0)
(1.00126 -0.0057933 0)
(1.00126 -0.0063856 0)
(1.00126 -0.00695627 0)
(1.00125 -0.00750338 0)
(1.00123 -0.00802486 0)
(1.00121 -0.00851853 0)
(1.00118 -0.00898223 0)
(1.00113 -0.00941384 0)
(1.00108 -0.0098114 0)
(1.00102 -0.0101731 0)
(1.00094 -0.0104975 0)
(1.00086 -0.0107834 0)
(1.00077 -0.0110297 0)
(1.00067 -0.0112361 0)
(1.00056 -0.0114022 0)
(1.00044 -0.0115283 0)
(1.00031 -0.0116149 0)
(1.00018 -0.0116628 0)
(1.00004 -0.0116733 0)
(0.999896 -0.0116477 0)
(0.99975 -0.0115877 0)
(0.999601 -0.0114954 0)
(0.999451 -0.0113728 0)
(0.999301 -0.0112222 0)
(0.999151 -0.0110459 0)
(0.999002 -0.0108461 0)
(0.998855 -0.0106253 0)
(0.998711 -0.0103857 0)
(0.998571 -0.0101295 0)
(0.998434 -0.00985901 0)
(0.998302 -0.00957617 0)
(0.998175 -0.009283 0)
(0.998052 -0.00898139 0)
(0.997935 -0.00867323 0)
(0.997822 -0.00836033 0)
(0.997715 -0.00804448 0)
(0.997613 -0.00772738 0)
(0.997517 -0.00741062 0)
(0.997427 -0.00709568 0)
(0.997344 -0.00678385 0)
(0.99727 -0.00647624 0)
(0.997206 -0.00617377 0)
(0.997151 -0.00587713 0)
(0.997104 -0.00558685 0)
(0.997061 -0.00530333 0)
(0.997018 -0.00502693 0)
(0.996972 -0.00475797 0)
(0.996921 -0.00449675 0)
(0.996867 -0.0042435 0)
(0.99681 -0.00399839 0)
(0.996753 -0.00376148 0)
(0.996698 -0.0035328 0)
(0.996646 -0.0033123 0)
(0.996598 -0.00309992 0)
(0.996555 -0.00289557 0)
(0.996516 -0.00269916 0)
(0.99648 -0.00251059 0)
(0.996449 -0.00232974 0)
(0.996421 -0.00215648 0)
(0.996395 -0.00199071 0)
(0.996372 -0.00183236 0)
(1.00186 -0.000415085 0)
(1.00187 -0.00145392 0)
(1.00189 -0.00230472 0)
(1.0019 -0.00321283 0)
(1.00192 -0.00407492 0)
(1.00194 -0.0049137 0)
(1.00196 -0.00573272 0)
(1.00197 -0.00652957 0)
(1.00198 -0.00730345 0)
(1.00199 -0.00805289 0)
(1.00198 -0.00877571 0)
(1.00197 -0.00946944 0)
(1.00194 -0.0101314 0)
(1.0019 -0.0107589 0)
(1.00185 -0.011349 0)
(1.00178 -0.0118991 0)
(1.00169 -0.0124064 0)
(1.00159 -0.0128687 0)
(1.00148 -0.0132839 0)
(1.00135 -0.0136503 0)
(1.0012 -0.0139667 0)
(1.00104 -0.0142321 0)
(1.00086 -0.0144461 0)
(1.00067 -0.0146089 0)
(1.00047 -0.014721 0)
(1.00026 -0.0147833 0)
(1.00003 -0.0147972 0)
(0.999807 -0.0147644 0)
(0.999573 -0.014687 0)
(0.999335 -0.0145674 0)
(0.999095 -0.0144082 0)
(0.998854 -0.0142122 0)
(0.998613 -0.0139823 0)
(0.998374 -0.0137216 0)
(0.998139 -0.0134332 0)
(0.997907 -0.01312 0)
(0.99768 -0.0127853 0)
(0.997459 -0.012432 0)
(0.997245 -0.0120632 0)
(0.997037 -0.0116819 0)
(0.996837 -0.0112907 0)
(0.996644 -0.0108921 0)
(0.99646 -0.0104885 0)
(0.996284 -0.0100819 0)
(0.996115 -0.00967409 0)
(0.995955 -0.00926649 0)
(0.995802 -0.00886047 0)
(0.995656 -0.00845722 0)
(0.995515 -0.00805779 0)
(0.995377 -0.00766317 0)
(0.995243 -0.00727431 0)
(0.995113 -0.00689216 0)
(0.994991 -0.0065176 0)
(0.994878 -0.00615145 0)
(0.994778 -0.00579437 0)
(0.994691 -0.00544689 0)
(0.994617 -0.0051094 0)
(0.994553 -0.00478224 0)
(0.994497 -0.00446565 0)
(0.994447 -0.00415979 0)
(0.9944 -0.0038648 0)
(0.994356 -0.00358071 0)
(0.994315 -0.0033075 0)
(0.994275 -0.00304511 0)
(0.994237 -0.00279342 0)
(0.994201 -0.00255229 0)
(0.994167 -0.00232151 0)
(0.994135 -0.00210095 0)
(0.994104 -0.00189042 0)
(1.00263 -0.000495676 0)
(1.00263 -0.0017303 0)
(1.00266 -0.00274849 0)
(1.00268 -0.00383404 0)
(1.00271 -0.00486281 0)
(1.00273 -0.00586706 0)
(1.00276 -0.00684856 0)
(1.00278 -0.00780481 0)
(1.0028 -0.0087352 0)
(1.0028 -0.00963797 0)
(1.0028 -0.0105105 0)
(1.00278 -0.0113499 0)
(1.00274 -0.0121529 0)
(1.00269 -0.0129161 0)
(1.00261 -0.0136361 0)
(1.00252 -0.0143094 0)
(1.0024 -0.0149328 0)
(1.00226 -0.0155032 0)
(1.00209 -0.0160179 0)
(1.00191 -0.0164748 0)
(1.0017 -0.0168719 0)
(1.00147 -0.0172081 0)
(1.00121 -0.0174825 0)
(1.00094 -0.0176949 0)
(1.00065 -0.0178457 0)
(1.00035 -0.0179359 0)
(1.00003 -0.0179667 0)
(0.999702 -0.0179402 0)
(0.999364 -0.0178585 0)
(0.99902 -0.0177245 0)
(0.998671 -0.0175411 0)
(0.998321 -0.0173116 0)
(0.99797 -0.0170396 0)
(0.997621 -0.0167286 0)
(0.997276 -0.0163824 0)
(0.996936 -0.0160046 0)
(0.996603 -0.015599 0)
(0.996279 -0.0151691 0)
(0.995963 -0.0147184 0)
(0.995658 -0.01425 0)
(0.995364 -0.013767 0)
(0.995082 -0.0132725 0)
(0.994811 -0.0127692 0)
(0.994553 -0.01226 0)
(0.994307 -0.0117475 0)
(0.994074 -0.0112342 0)
(0.993854 -0.0107226 0)
(0.993647 -0.0102148 0)
(0.993455 -0.0097128 0)
(0.993279 -0.00921816 0)
(0.993118 -0.00873226 0)
(0.992971 -0.00825616 0)
(0.992835 -0.00779063 0)
(0.992706 -0.0073363 0)
(0.99258 -0.00689366 0)
(0.992456 -0.00646318 0)
(0.992334 -0.00604521 0)
(0.992215 -0.00564007 0)
(0.992101 -0.00524795 0)
(0.991993 -0.004869 0)
(0.991893 -0.00450327 0)
(0.9918 -0.00415076 0)
(0.991715 -0.00381143 0)
(0.991638 -0.0034852 0)
(0.991568 -0.00317196 0)
(0.991503 -0.00287154 0)
(0.991445 -0.00258377 0)
(0.991391 -0.00230847 0)
(0.991342 -0.00204548 0)
(1.00346 -0.000570556 0)
(1.00347 -0.00198512 0)
(1.00351 -0.00315826 0)
(1.00353 -0.00440841 0)
(1.00357 -0.00559264 0)
(1.00361 -0.00675265 0)
(1.00365 -0.00788807 0)
(1.00368 -0.00899668 0)
(1.0037 -0.0100782 0)
(1.00371 -0.0111305 0)
(1.00371 -0.0121507 0)
(1.00369 -0.0131354 0)
(1.00364 -0.0140811 0)
(1.00357 -0.0149836 0)
(1.00348 -0.0158388 0)
(1.00336 -0.0166426 0)
(1.0032 -0.017391 0)
(1.00302 -0.0180803 0)
(1.0028 -0.0187071 0)
(1.00256 -0.0192684 0)
(1.00228 -0.0197617 0)
(1.00197 -0.0201852 0)
(1.00164 -0.0205377 0)
(1.00127 -0.0208183 0)
(1.00089 -0.0210272 0)
(1.00048 -0.0211649 0)
(1.00005 -0.0212327 0)
(0.999608 -0.0212325 0)
(0.999151 -0.0211665 0)
(0.998685 -0.0210377 0)
(0.998211 -0.0208492 0)
(0.997733 -0.0206047 0)
(0.997255 -0.0203081 0)
(0.996778 -0.0199634 0)
(0.996305 -0.0195749 0)
(0.995839 -0.0191468 0)
(0.995382 -0.0186836 0)
(0.994936 -0.0181895 0)
(0.994501 -0.0176689 0)
(0.99408 -0.017126 0)
(0.993674 -0.0165649 0)
(0.993282 -0.0159896 0)
(0.992907 -0.0154038 0)
(0.992547 -0.0148106 0)
(0.992205 -0.014213 0)
(0.991879 -0.0136136 0)
(0.991569 -0.0130146 0)
(0.991275 -0.0124179 0)
(0.990995 -0.0118254 0)
(0.990727 -0.0112386 0)
(0.990472 -0.0106591 0)
(0.990229 -0.0100884 0)
(0.989999 -0.00952795 0)
(0.989786 -0.00897912 0)
(0.989591 -0.00844308 0)
(0.989415 -0.00792076 0)
(0.989257 -0.00741293 0)
(0.989115 -0.00692015 0)
(0.988986 -0.00644284 0)
(0.988867 -0.0059813 0)
(0.988758 -0.00553573 0)
(0.988655 -0.00510623 0)
(0.988559 -0.00469281 0)
(0.988469 -0.00429539 0)
(0.988384 -0.00391385 0)
(0.988305 -0.003548 0)
(0.988232 -0.0031976 0)
(0.988163 -0.00286244 0)
(0.988099 -0.00254229 0)
(1.00437 -0.000640189 0)
(1.00438 -0.0022191 0)
(1.00442 -0.00353404 0)
(1.00446 -0.0049362 0)
(1.00451 -0.00626503 0)
(1.00457 -0.00757136 0)
(1.00462 -0.00885261 0)
(1.00466 -0.0101072 0)
(1.0047 -0.0113352 0)
(1.00472 -0.0125342 0)
(1.00472 -0.0137013 0)
(1.0047 -0.0148327 0)
(1.00465 -0.0159242 0)
(1.00457 -0.0169714 0)
(1.00446 -0.0179694 0)
(1.00431 -0.0189135 0)
(1.00413 -0.0197988 0)
(1.0039 -0.020621 0)
(1.00364 -0.0213756 0)
(1.00333 -0.0220591 0)
(1.00298 -0.0226682 0)
(1.0026 -0.0232001 0)
(1.00217 -0.0236529 0)
(1.00171 -0.0240252 0)
(1.00122 -0.0243165 0)
(1.0007 -0.024527 0)
(1.00015 -0.0246573 0)
(0.999585 -0.0247091 0)
(0.998997 -0.0246845 0)
(0.998394 -0.0245863 0)
(0.997781 -0.0244176 0)
(0.997161 -0.0241824 0)
(0.996539 -0.0238846 0)
(0.995917 -0.0235287 0)
(0.9953 -0.0231193 0)
(0.99469 -0.0226614 0)
(0.99409 -0.0221597 0)
(0.993503 -0.0216191 0)
(0.992932 -0.0210445 0)
(0.992377 -0.0204404 0)
(0.991841 -0.0198112 0)
(0.991325 -0.0191611 0)
(0.99083 -0.018494 0)
(0.990356 -0.017814 0)
(0.989904 -0.0171247 0)
(0.989475 -0.01643 0)
(0.989067 -0.0157333 0)
(0.988683 -0.015038 0)
(0.988322 -0.0143473 0)
(0.987984 -0.0136637 0)
(0.98767 -0.0129896 0)
(0.987379 -0.0123268 0)
(0.987108 -0.0116769 0)
(0.986853 -0.0110408 0)
(0.986611 -0.0104195 0)
(0.986379 -0.00981382 0)
(0.986157 -0.00922435 0)
(0.985945 -0.0086517 0)
(0.985745 -0.00809633 0)
(0.985557 -0.00755859 0)
(0.985383 -0.00703873 0)
(0.985222 -0.00653691 0)
(0.985074 -0.00605319 0)
(0.984938 -0.00558757 0)
(0.984813 -0.00513998 0)
(0.984699 -0.00471028 0)
(0.984593 -0.00429827 0)
(0.984496 -0.00390377 0)
(0.984407 -0.0035266 0)
(1.00533 -0.000705059 0)
(1.00534 -0.00243431 0)
(1.00539 -0.00387929 0)
(1.00545 -0.00542234 0)
(1.00551 -0.00688615 0)
(1.00559 -0.00833056 0)
(1.00566 -0.00975084 0)
(1.00572 -0.0111463 0)
(1.00577 -0.0125174 0)
(1.00581 -0.0138617 0)
(1.00582 -0.0151761 0)
(1.00581 -0.0164567 0)
(1.00576 -0.0176989 0)
(1.00568 -0.0188977 0)
(1.00556 -0.0200478 0)
(1.00539 -0.0211436 0)
(1.00518 -0.0221796 0)
(1.00491 -0.0231506 0)
(1.0046 -0.0240513 0)
(1.00424 -0.0248772 0)
(1.00382 -0.025624 0)
(1.00336 -0.0262881 0)
(1.00285 -0.0268667 0)
(1.00229 -0.0273575 0)
(1.00169 -0.0277591 0)
(1.00105 -0.028071 0)
(1.00038 -0.0282932 0)
(0.999679 -0.0284268 0)
(0.99895 -0.0284734 0)
(0.998201 -0.0284354 0)
(0.997437 -0.0283159 0)
(0.996662 -0.0281185 0)
(0.995881 -0.0278473 0)
(0.995099 -0.027507 0)
(0.994321 -0.0271023 0)
(0.99355 -0.0266385 0)
(0.99279 -0.0261207 0)
(0.992045 -0.0255545 0)
(0.991318 -0.0249453 0)
(0.99061 -0.0242986 0)
(0.989925 -0.0236198 0)
(0.989263 -0.0229143 0)
(0.988626 -0.0221874 0)
(0.988015 -0.021444 0)
(0.987431 -0.0206884 0)
(0.986874 -0.0199248 0)
(0.986344 -0.0191565 0)
(0.98584 -0.0183867 0)
(0.985362 -0.017618 0)
(0.984909 -0.016853 0)
(0.984479 -0.0160939 0)
(0.984071 -0.0153431 0)
(0.983687 -0.0146028 0)
(0.983327 -0.013875 0)
(0.982994 -0.0131616 0)
(0.982688 -0.0124643 0)
(0.982407 -0.0117843 0)
(0.982151 -0.0111227 0)
(0.981915 -0.0104802 0)
(0.981697 -0.00985755 0)
(0.981494 -0.0092551 0)
(0.981305 -0.00867318 0)
(0.981129 -0.00811196 0)
(0.980965 -0.0075715 0)
(0.980812 -0.00705177 0)
(0.98067 -0.00655264 0)
(0.980538 -0.00607392 0)
(0.980416 -0.0056154 0)
(0.980302 -0.00517688 0)
(1.00632 -0.000765437 0)
(1.00635 -0.00263269 0)
(1.00641 -0.00419792 0)
(1.00647 -0.00587212 0)
(1.00656 -0.0074625 0)
(1.00666 -0.00903787 0)
(1.00675 -0.0105914 0)
(1.00684 -0.0121235 0)
(1.00691 -0.013635 0)
(1.00697 -0.0151236 0)
(1.007 -0.0165863 0)
(1.007 -0.018019 0)
(1.00697 -0.0194169 0)
(1.00689 -0.0207745 0)
(1.00676 -0.022086 0)
(1.00658 -0.0233452 0)
(1.00634 -0.0245457 0)
(1.00605 -0.0256815 0)
(1.0057 -0.0267465 0)
(1.00528 -0.0277351 0)
(1.0048 -0.028642 0)
(1.00427 -0.0294626 0)
(1.00367 -0.0301928 0)
(1.00301 -0.0308296 0)
(1.00231 -0.0313703 0)
(1.00155 -0.0318134 0)
(1.00075 -0.0321582 0)
(0.999912 -0.0324048 0)
(0.999039 -0.0325541 0)
(0.998137 -0.0326079 0)
(0.997213 -0.0325689 0)
(0.996273 -0.0324402 0)
(0.995323 -0.0322259 0)
(0.994368 -0.0319303 0)
(0.993415 -0.0315586 0)
(0.992468 -0.031116 0)
(0.991532 -0.0306082 0)
(0.990611 -0.0300412 0)
(0.989709 -0.0294208 0)
(0.98883 -0.0287531 0)
(0.987977 -0.0280439 0)
(0.987151 -0.0272988 0)
(0.986356 -0.026523 0)
(0.985592 -0.0257219 0)
(0.984862 -0.0249004 0)
(0.984164 -0.0240633 0)
(0.983501 -0.0232156 0)
(0.982872 -0.022362 0)
(0.982277 -0.0215069 0)
(0.981717 -0.0206544 0)
(0.981192 -0.0198081 0)
(0.980701 -0.0189711 0)
(0.980242 -0.0181459 0)
(0.979811 -0.0173344 0)
(0.979405 -0.0165383 0)
(0.97902 -0.015759 0)
(0.978656 -0.0149977 0)
(0.978312 -0.0142557 0)
(0.977988 -0.0135338 0)
(0.977686 -0.0128328 0)
(0.977405 -0.0121534 0)
(0.977145 -0.011496 0)
(0.976904 -0.010861 0)
(0.976682 -0.0102485 0)
(0.976477 -0.00965857 0)
(0.976287 -0.00909129 0)
(0.976113 -0.00854651 0)
(0.975952 -0.00802412 0)
(0.975803 -0.00752397 0)
(1.00734 -0.000821291 0)
(1.00737 -0.00281509 0)
(1.00745 -0.00449192 0)
(1.00753 -0.00628818 0)
(1.00764 -0.00799716 0)
(1.00776 -0.00969663 0)
(1.00788 -0.0113776 0)
(1.008 -0.0130419 0)
(1.0081 -0.0146908 0)
(1.00819 -0.0163223 0)
(1.00824 -0.0179334 0)
(1.00827 -0.0195202 0)
(1.00824 -0.0210775 0)
(1.00818 -0.0225996 0)
(1.00805 -0.0240802 0)
(1.00787 -0.0255125 0)
(1.00762 -0.0268896 0)
(1.0073 -0.0282043 0)
(1.00692 -0.0294498 0)
(1.00646 -0.0306193 0)
(1.00593 -0.0317065 0)
(1.00532 -0.0327058 0)
(1.00465 -0.0336118 0)
(1.0039 -0.0344201 0)
(1.00309 -0.0351271 0)
(1.00222 -0.03573 0)
(1.0013 -0.0362269 0)
(1.00032 -0.0366169 0)
(0.999298 -0.0368999 0)
(0.99824 -0.037077 0)
(0.997152 -0.0371499 0)
(0.996041 -0.0371214 0)
(0.994912 -0.0369948 0)
(0.993775 -0.0367744 0)
(0.992635 -0.0364651 0)
(0.991498 -0.0360721 0)
(0.990371 -0.0356012 0)
(0.989259 -0.0350586 0)
(0.988167 -0.0344504 0)
(0.987099 -0.0337831 0)
(0.98606 -0.0330633 0)
(0.985052 -0.0322976 0)
(0.984078 -0.0314927 0)
(0.98314 -0.0306551 0)
(0.982239 -0.029791 0)
(0.981377 -0.0289063 0)
(0.980554 -0.0280061 0)
(0.979771 -0.0270952 0)
(0.979027 -0.0261776 0)
(0.978321 -0.0252572 0)
(0.977652 -0.0243375 0)
(0.977018 -0.0234217 0)
(0.97642 -0.0225132 0)
(0.975858 -0.021615 0)
(0.975333 -0.0207301 0)
(0.974845 -0.019861 0)
(0.974394 -0.0190099 0)
(0.973977 -0.0181784 0)
(0.973591 -0.0173681 0)
(0.973232 -0.01658 0)
(0.972899 -0.015815 0)
(0.972588 -0.015074 0)
(0.972299 -0.0143573 0)
(0.97203 -0.0136654 0)
(0.971779 -0.0129985 0)
(0.971547 -0.0123566 0)
(0.97133 -0.0117398 0)
(0.97113 -0.0111479 0)
(0.970944 -0.0105809 0)
(1.00837 -0.00087239 0)
(1.00841 -0.00298127 0)
(1.0085 -0.00476101 0)
(1.00861 -0.00666992 0)
(1.00874 -0.00848907 0)
(1.00889 -0.0103051 0)
(1.00905 -0.0121069 0)
(1.0092 -0.0138979 0)
(1.00934 -0.0156798 0)
(1.00945 -0.017451 0)
(1.00954 -0.0192088 0)
(1.00959 -0.0209493 0)
(1.0096 -0.0226674 0)
(1.00955 -0.0243571 0)
(1.00944 -0.0260117 0)
(1.00926 -0.0276239 0)
(1.00901 -0.0291861 0)
(1.00868 -0.0306904 0)
(1.00827 -0.0321291 0)
(1.00778 -0.0334943 0)
(1.00721 -0.0347787 0)
(1.00655 -0.0359753 0)
(1.0058 -0.0370777 0)
(1.00497 -0.03808 0)
(1.00407 -0.0389775 0)
(1.00309 -0.0397658 0)
(1.00204 -0.0404419 0)
(1.00093 -0.0410036 0)
(0.999768 -0.0414496 0)
(0.998553 -0.0417799 0)
(0.997298 -0.0419951 0)
(0.996011 -0.0420972 0)
(0.994698 -0.0420888 0)
(0.99337 -0.0419736 0)
(0.992032 -0.0417559 0)
(0.990694 -0.0414409 0)
(0.989362 -0.0410341 0)
(0.988044 -0.0405419 0)
(0.986745 -0.0399708 0)
(0.98547 -0.0393277 0)
(0.984226 -0.0386196 0)
(0.983015 -0.0378536 0)
(0.981842 -0.0370365 0)
(0.980711 -0.0361751 0)
(0.979622 -0.0352757 0)
(0.978579 -0.0343447 0)
(0.977582 -0.0333884 0)
(0.976632 -0.032413 0)
(0.97573 -0.0314244 0)
(0.974876 -0.0304286 0)
(0.97407 -0.0294307 0)
(0.973311 -0.0284354 0)
(0.972599 -0.0274468 0)
(0.97193 -0.0264682 0)
(0.9713 -0.0255022 0)
(0.970706 -0.0245515 0)
(0.970146 -0.023618 0)
(0.969619 -0.022704 0)
(0.969123 -0.0218111 0)
(0.96866 -0.0209407 0)
(0.968228 -0.0200943 0)
(0.967827 -0.0192727 0)
(0.967455 -0.0184767 0)
(0.96711 -0.0177069 0)
(0.966791 -0.0169638 0)
(0.966495 -0.0162476 0)
(0.966222 -0.0155583 0)
(0.965969 -0.0148961 0)
(0.965735 -0.014261 0)
(1.00941 -0.00091851 0)
(1.00945 -0.00313048 0)
(1.00956 -0.00500365 0)
(1.00969 -0.00701499 0)
(1.00985 -0.00893501 0)
(1.01003 -0.010859 0)
(1.01023 -0.0127737 0)
(1.01042 -0.0146842 0)
(1.0106 -0.0165928 0)
(1.01076 -0.0184984 0)
(1.01088 -0.0203988 0)
(1.01097 -0.0222902 0)
(1.01101 -0.0241676 0)
(1.01099 -0.0260248 0)
(1.01091 -0.0278549 0)
(1.01075 -0.0296501 0)
(1.01051 -0.0314024 0)
(1.01018 -0.0331031 0)
(1.00977 -0.0347435 0)
(1.00925 -0.0363151 0)
(1.00865 -0.0378093 0)
(1.00794 -0.0392179 0)
(1.00714 -0.0405332 0)
(1.00624 -0.0417482 0)
(1.00525 -0.0428564 0)
(1.00417 -0.0438524 0)
(1.00301 -0.0447315 0)
(1.00177 -0.0454901 0)
(1.00047 -0.0461256 0)
(0.999099 -0.0466365 0)
(0.997678 -0.0470224 0)
(0.996212 -0.047284 0)
(0.994712 -0.0474229 0)
(0.993187 -0.0474419 0)
(0.991644 -0.0473448 0)
(0.990095 -0.0471361 0)
(0.988547 -0.0468211 0)
(0.987008 -0.0464059 0)
(0.985486 -0.0458971 0)
(0.983988 -0.0453016 0)
(0.982521 -0.0446269 0)
(0.981089 -0.0438803 0)
(0.979698 -0.0430698 0)
(0.978351 -0.0422032 0)
(0.977051 -0.0412884 0)
(0.975802 -0.0403332 0)
(0.974604 -0.0393449 0)
(0.97346 -0.0383301 0)
(0.972368 -0.037295 0)
(0.971331 -0.036245 0)
(0.970345 -0.0351853 0)
(0.969411 -0.0341206 0)
(0.968527 -0.0330555 0)
(0.967693 -0.0319948 0)
(0.96691 -0.0309425 0)
(0.966177 -0.0299026 0)
(0.965495 -0.0288785 0)
(0.96486 -0.0278729 0)
(0.96427 -0.0268883 0)
(0.96372 -0.0259265 0)
(0.963208 -0.0249894 0)
(0.962731 -0.0240781 0)
(0.962286 -0.023194 0)
(0.961871 -0.0223378 0)
(0.961485 -0.0215102 0)
(0.961126 -0.0207116 0)
(0.960793 -0.0199424 0)
(0.960484 -0.0192027 0)
(0.960197 -0.0184926 0)
(1.01043 -0.000959531 0)
(1.01049 -0.00326219 0)
(1.01061 -0.0052185 0)
(1.01077 -0.00732135 0)
(1.01096 -0.00933218 0)
(1.01118 -0.0113544 0)
(1.01141 -0.0133729 0)
(1.01165 -0.0153943 0)
(1.01188 -0.0174217 0)
(1.01208 -0.0194546 0)
(1.01226 -0.0214912 0)
(1.0124 -0.0235281 0)
(1.01248 -0.0255605 0)
(1.0125 -0.0275821 0)
(1.01245 -0.0295859 0)
(1.01232 -0.0315639 0)
(1.0121 -0.0335075 0)
(1.01179 -0.0354074 0)
(1.01138 -0.0372544 0)
(1.01086 -0.0390387 0)
(1.01023 -0.040751 0)
(1.0095 -0.0423819 0)
(1.00865 -0.0439225 0)
(1.00769 -0.0453643 0)
(1.00663 -0.0466996 0)
(1.00546 -0.0479213 0)
(1.0042 -0.0490233 0)
(1.00284 -0.0500005 0)
(1.0014 -0.0508488 0)
(0.999886 -0.051565 0)
(0.998303 -0.0521473 0)
(0.996662 -0.0525951 0)
(0.994974 -0.0529088 0)
(0.993249 -0.05309 0)
(0.991498 -0.0531414 0)
(0.98973 -0.0530667 0)
(0.987957 -0.0528708 0)
(0.986186 -0.0525591 0)
(0.984429 -0.0521379 0)
(0.982693 -0.0516144 0)
(0.980985 -0.0509961 0)
(0.979313 -0.0502909 0)
(0.977683 -0.049507 0)
(0.976101 -0.0486525 0)
(0.97457 -0.0477355 0)
(0.973094 -0.046764 0)
(0.971677 -0.0457457 0)
(0.97032 -0.0446885 0)
(0.969025 -0.0436001 0)
(0.967792 -0.0424883 0)
(0.966623 -0.0413603 0)
(0.965517 -0.0402229 0)
(0.964474 -0.0390821 0)
(0.963491 -0.037943 0)
(0.962566 -0.0368101 0)
(0.961693 -0.0356872 0)
(0.960871 -0.0345779 0)
(0.960096 -0.0334854 0)
(0.959369 -0.0324126 0)
(0.958688 -0.0313622 0)
(0.958051 -0.0303363 0)
(0.957458 -0.0293367 0)
(0.956907 -0.0283649 0)
(0.956394 -0.0274222 0)
(0.955918 -0.0265095 0)
(0.955476 -0.0256275 0)
(0.955067 -0.0247766 0)
(0.954687 -0.0239574 0)
(0.954335 -0.02317 0)
(1.01144 -0.000995437 0)
(1.01151 -0.00337636 0)
(1.01165 -0.00540528 0)
(1.01183 -0.00758847 0)
(1.01206 -0.00967968 0)
(1.01232 -0.0117899 0)
(1.0126 -0.0139022 0)
(1.01289 -0.016025 0)
(1.01316 -0.018162 0)
(1.01343 -0.0203136 0)
(1.01366 -0.0224785 0)
(1.01385 -0.0246536 0)
(1.01398 -0.0268343 0)
(1.01405 -0.0290148 0)
(1.01405 -0.0311878 0)
(1.01396 -0.0333452 0)
(1.01378 -0.035478 0)
(1.01349 -0.0375766 0)
(1.01309 -0.0396309 0)
(1.01258 -0.0416306 0)
(1.01195 -0.0435653 0)
(1.0112 -0.0454246 0)
(1.01032 -0.0471984 0)
(1.00932 -0.048877 0)
(1.0082 -0.0504513 0)
(1.00696 -0.0519127 0)
(1.0056 -0.0532536 0)
(1.00414 -0.0544673 0)
(1.00258 -0.0555479 0)
(1.00092 -0.0564909 0)
(0.999183 -0.0572927 0)
(0.997372 -0.0579511 0)
(0.9955 -0.058465 0)
(0.993577 -0.0588347 0)
(0.991615 -0.0590615 0)
(0.989626 -0.0591481 0)
(0.98762 -0.0590984 0)
(0.98561 -0.0589171 0)
(0.983606 -0.0586101 0)
(0.981618 -0.0581841 0)
(0.979654 -0.0576465 0)
(0.977725 -0.0570052 0)
(0.975838 -0.0562687 0)
(0.973999 -0.0554458 0)
(0.972214 -0.0545458 0)
(0.970488 -0.0535778 0)
(0.968825 -0.0525514 0)
(0.967228 -0.0514753 0)
(0.965698 -0.0503579 0)
(0.964238 -0.049207 0)
(0.962846 -0.0480298 0)
(0.961524 -0.0468329 0)
(0.960269 -0.0456229 0)
(0.959081 -0.0444061 0)
(0.957961 -0.0431886 0)
(0.956908 -0.0419761 0)
(0.955922 -0.0407736 0)
(0.955 -0.0395855 0)
(0.954139 -0.0384156 0)
(0.953336 -0.037267 0)
(0.952587 -0.0361425 0)
(0.951887 -0.0350446 0)
(0.951234 -0.0339752 0)
(0.950625 -0.0329359 0)
(0.950058 -0.0319283 0)
(0.94953 -0.0309531 0)
(0.949039 -0.0300114 0)
(0.948583 -0.0291036 0)
(0.94816 -0.0282303 0)
(1.01243 -0.00102634 0)
(1.01252 -0.00347354 0)
(1.01268 -0.00556484 0)
(1.01289 -0.00781748 0)
(1.01315 -0.00997869 0)
(1.01346 -0.0121666 0)
(1.01378 -0.0143625 0)
(1.01412 -0.0165767 0)
(1.01445 -0.0188137 0)
(1.01477 -0.0210744 0)
(1.01507 -0.0233583 0)
(1.01532 -0.0256629 0)
(1.01551 -0.0279839 0)
(1.01564 -0.0303157 0)
(1.0157 -0.0326512 0)
(1.01566 -0.0349822 0)
(1.01552 -0.0372995 0)
(1.01527 -0.0395931 0)
(1.0149 -0.0418524 0)
(1.01441 -0.0440666 0)
(1.01379 -0.0462244 0)
(1.01304 -0.0483144 0)
(1.01214 -0.0503256 0)
(1.01111 -0.052247 0)
(1.00995 -0.0540681 0)
(1.00865 -0.0557792 0)
(1.00722 -0.0573711 0)
(1.00566 -0.0588353 0)
(1.00399 -0.0601645 0)
(1.00221 -0.0613524 0)
(1.00032 -0.0623938 0)
(0.998351 -0.0632847 0)
(0.996301 -0.0640223 0)
(0.994184 -0.0646053 0)
(0.992014 -0.0650334 0)
(0.989802 -0.0653081 0)
(0.987562 -0.0654318 0)
(0.985305 -0.0654082 0)
(0.983045 -0.0652424 0)
(0.980794 -0.0649402 0)
(0.978562 -0.0645088 0)
(0.976359 -0.0639558 0)
(0.974196 -0.0632898 0)
(0.972081 -0.06252 0)
(0.970021 -0.0616555 0)
(0.968022 -0.060706 0)
(0.966092 -0.0596807 0)
(0.964233 -0.0585892 0)
(0.962449 -0.0574412 0)
(0.960742 -0.0562462 0)
(0.959115 -0.0550139 0)
(0.957569 -0.0537534 0)
(0.956103 -0.0524733 0)
(0.954718 -0.051181 0)
(0.95341 -0.0498832 0)
(0.952176 -0.0485859 0)
(0.951011 -0.0472943 0)
(0.949914 -0.0460135 0)
(0.948882 -0.0447479 0)
(0.947914 -0.0435018 0)
(0.947007 -0.0422787 0)
(0.946161 -0.0410816 0)
(0.945372 -0.0399132 0)
(0.944637 -0.0387756 0)
(0.943953 -0.0376706 0)
(0.943318 -0.0365996 0)
(0.942728 -0.0355636 0)
(0.94218 -0.0345637 0)
(0.941671 -0.0336006 0)
(1.0134 -0.00105253 0)
(1.0135 -0.00355486 0)
(1.01368 -0.005699 0)
(1.01392 -0.0080108 0)
(1.01422 -0.0102321 0)
(1.01457 -0.0124876 0)
(1.01494 -0.0147573 0)
(1.01534 -0.017053 0)
(1.01573 -0.0193798 0)
(1.01612 -0.0217397 0)
(1.01648 -0.024133 0)
(1.0168 -0.0265575 0)
(1.01706 -0.0290096 0)
(1.01726 -0.0314839 0)
(1.01737 -0.0339736 0)
(1.0174 -0.0364705 0)
(1.01731 -0.0389654 0)
(1.01711 -0.041448 0)
(1.01679 -0.0439076 0)
(1.01633 -0.0463325 0)
(1.01574 -0.0487109 0)
(1.01499 -0.0510308 0)
(1.0141 -0.05328 0)
(1.01306 -0.0554467 0)
(1.01186 -0.0575191 0)
(1.01052 -0.0594862 0)
(1.00903 -0.0613373 0)
(1.0074 -0.0630627 0)
(1.00563 -0.0646533 0)
(1.00373 -0.0661011 0)
(1.00172 -0.0673993 0)
(0.999598 -0.0685419 0)
(0.99738 -0.0695245 0)
(0.995077 -0.0703438 0)
(0.992703 -0.070998 0)
(0.990272 -0.0714867 0)
(0.987797 -0.0718107 0)
(0.985292 -0.0719724 0)
(0.982771 -0.0719754 0)
(0.980248 -0.0718249 0)
(0.977736 -0.0715269 0)
(0.975246 -0.0710887 0)
(0.972791 -0.0705186 0)
(0.97038 -0.0698255 0)
(0.968024 -0.0690192 0)
(0.96573 -0.0681099 0)
(0.963506 -0.0671084 0)
(0.961358 -0.0660255 0)
(0.959289 -0.0648721 0)
(0.957304 -0.0636582 0)
(0.955405 -0.0623937 0)
(0.953593 -0.0610874 0)
(0.951868 -0.0597483 0)
(0.95023 -0.0583848 0)
(0.948678 -0.0570055 0)
(0.947214 -0.0556182 0)
(0.945836 -0.0542306 0)
(0.944544 -0.052849 0)
(0.943334 -0.0514792 0)
(0.942202 -0.0501262 0)
(0.941144 -0.0487943 0)
(0.940154 -0.0474874 0)
(0.939231 -0.0462088 0)
(0.938368 -0.0449613 0)
(0.937564 -0.0437475 0)
(0.936816 -0.042569 0)
(0.936119 -0.0414276 0)
(0.935471 -0.0403246 0)
(0.93487 -0.039261 0)
(1.01434 -0.00107446 0)
(1.01445 -0.00362186 0)
(1.01465 -0.00581018 0)
(1.01492 -0.00817174 0)
(1.01526 -0.010444 0)
(1.01565 -0.0127578 0)
(1.01608 -0.0150918 0)
(1.01654 -0.0174592 0)
(1.017 -0.0198662 0)
(1.01745 -0.0223156 0)
(1.01788 -0.0248082 0)
(1.01827 -0.0273427 0)
(1.01861 -0.0299161 0)
(1.01888 -0.0325232 0)
(1.01907 -0.0351577 0)
(1.01916 -0.0378116 0)
(1.01914 -0.0404757 0)
(1.01901 -0.0431397 0)
(1.01874 -0.0457925 0)
(1.01833 -0.0484222 0)
(1.01777 -0.0510164 0)
(1.01705 -0.0535625 0)
(1.01617 -0.0560476 0)
(1.01513 -0.0584589 0)
(1.01393 -0.0607838 0)
(1.01256 -0.0630098 0)
(1.01102 -0.0651253 0)
(1.00933 -0.0671189 0)
(1.00748 -0.0689803 0)
(1.00549 -0.0706998 0)
(1.00336 -0.0722687 0)
(1.00111 -0.0736796 0)
(0.998732 -0.074926 0)
(0.996255 -0.0760028 0)
(0.993687 -0.0769062 0)
(0.991043 -0.0776337 0)
(0.988338 -0.0781846 0)
(0.985586 -0.0785594 0)
(0.982803 -0.0787601 0)
(0.980004 -0.0787903 0)
(0.977203 -0.0786549 0)
(0.974415 -0.0783602 0)
(0.971653 -0.0779138 0)
(0.968931 -0.0773242 0)
(0.966259 -0.0766009 0)
(0.963648 -0.0757541 0)
(0.961108 -0.0747944 0)
(0.958646 -0.0737328 0)
(0.956269 -0.0725804 0)
(0.953983 -0.0713489 0)
(0.95179 -0.07005 0)
(0.949696 -0.0686955 0)
(0.947701 -0.0672968 0)
(0.945808 -0.0658645 0)
(0.944014 -0.0644082 0)
(0.942318 -0.0629363 0)
(0.940716 -0.0614568 0)
(0.939205 -0.0599768 0)
(0.93778 -0.0585033 0)
(0.936441 -0.0570424 0)
(0.935186 -0.0555998 0)
(0.934011 -0.0541804 0)
(0.932914 -0.0527882 0)
(0.931892 -0.0514271 0)
(0.930939 -0.0500999 0)
(0.930053 -0.0488091 0)
(0.929229 -0.0475569 0)
(0.928464 -0.046345 0)
(0.927753 -0.0451749 0)
(1.01524 -0.00109265 0)
(1.01536 -0.00367632 0)
(1.01559 -0.00590112 0)