/*--------------------------------*- C++ -*----------------------------------*\
  =========                 |
  \\      /  F ield         | OpenFOAM: The Open Source CFD Toolbox
   \\    /   O peration     | Website:  https://openfoam.org
    \\  /    A nd           | Version:  10
     \\/     M anipulation  |
\*---------------------------------------------------------------------------*/
FoamFile
{
    format      ascii;
    class       volVectorField;
    location    "50";
    object      U;
}
// * * * * * * * * * * * * * * * * * * * * * * * * * * * * * * * * * * * * * //

dimensions      [0 1 -1 0 0 0 0];

internalField   nonuniform List<vector> 
66268
(
(0.999999 -4.031e-05 0)
(0.999999 -0.00014791 0)
(0.999999 -0.000236248 0)
(0.999999 -0.000329406 0)
(0.999999 -0.000421158 0)
(0.999999 -0.000512112 0)
(0.999999 -0.000603026 0)
(0.999999 -0.000694064 0)
(1 -0.000785184 0)
(1 -0.000876301 0)
(1 -0.000967235 0)
(1 -0.00105772 0)
(1 -0.00114743 0)
(1 -0.00123597 0)
(1 -0.00132292 0)
(1 -0.00140783 0)
(1 -0.00149022 0)
(1 -0.00156962 0)
(1 -0.00164559 0)
(1 -0.00171769 0)
(1 -0.00178553 0)
(1 -0.00184876 0)
(1 -0.00190709 0)
(1 -0.00196028 0)
(1 -0.00200815 0)
(1 -0.00205059 0)
(1 -0.00208755 0)
(1 -0.00211903 0)
(1 -0.0021451 0)
(1 -0.00216587 0)
(1 -0.00218149 0)
(1 -0.00219217 0)
(1 -0.00219814 0)
(1 -0.00219964 0)
(1.00001 -0.00219697 0)
(1.00001 -0.00219043 0)
(1.00001 -0.00218034 0)
(1.00001 -0.00216702 0)
(1.00001 -0.00215078 0)
(1.00001 -0.00213192 0)
(1.00001 -0.00211069 0)
(1.00001 -0.00208732 0)
(1.00001 -0.00206203 0)
(1.00001 -0.002035 0)
(1.00001 -0.00200644 0)
(1 -0.00197654 0)
(1 -0.00194557 0)
(0.999997 -0.00191383 0)
(0.99999 -0.00188166 0)
(0.999981 -0.00184945 0)
(0.999969 -0.00181754 0)
(0.999957 -0.00178616 0)
(0.999946 -0.00175542 0)
(0.999938 -0.00172533 0)
(0.999933 -0.0016958 0)
(0.999933 -0.00166675 0)
(0.999936 -0.00163815 0)
(0.999941 -0.00160999 0)
(0.999947 -0.00158234 0)
(0.999954 -0.00155527 0)
(0.999961 -0.00152887 0)
(0.999967 -0.00150322 0)
(0.999972 -0.00147838 0)
(0.999976 -0.00145441 0)
(0.99998 -0.00143132 0)
(0.999983 -0.00140914 0)
(0.999985 -0.00138787 0)
(0.999987 -0.00136753 0)
(0.999988 -0.00134815 0)
(1.00018 -0.00012822 0)
(1.00017 -0.000463425 0)
(1.00018 -0.000737553 0)
(1.00018 -0.00102873 0)
(1.00019 -0.0013134 0)
(1.00019 -0.00159404 0)
(1.0002 -0.00187347 0)
(1.00021 -0.00215176 0)
(1.00022 -0.00242877 0)
(1.00023 -0.00270421 0)
(1.00023 -0.00297754 0)
(1.00024 -0.00324797 0)
(1.00025 -0.00351452 0)
(1.00025 -0.00377608 0)
(1.00026 -0.00403143 0)
(1.00026 -0.00427929 0)
(1.00026 -0.00451834 0)
(1.00026 -0.00474729 0)
(1.00026 -0.00496488 0)
(1.00025 -0.00516996 0)
(1.00024 -0.00536147 0)
(1.00024 -0.0055385 0)
(1.00022 -0.00570028 0)
(1.00021 -0.00584622 0)
(1.0002 -0.00597592 0)
(1.00018 -0.00608912 0)
(1.00016 -0.00618578 0)
(1.00014 -0.00626599 0)
(1.00012 -0.00633002 0)
(1.0001 -0.00637828 0)
(1.00007 -0.00641133 0)
(1.00005 -0.00642982 0)
(1.00002 -0.00643453 0)
(0.999992 -0.00642629 0)
(0.999965 -0.00640599 0)
(0.999937 -0.00637453 0)
(0.99991 -0.0063328 0)
(0.999882 -0.00628169 0)
(0.999855 -0.00622209 0)
(0.999827 -0.00615492 0)
(0.9998 -0.00608111 0)
(0.999773 -0.00600164 0)
(0.999746 -0.00591748 0)
(0.99972 -0.00582956 0)
(0.999694 -0.00573878 0)
(0.99967 -0.0056459 0)
(0.999649 -0.00555155 0)
(0.999631 -0.00545617 0)
(0.999617 -0.00536006 0)
(0.999609 -0.00526338 0)
(0.999605 -0.00516625 0)
(0.999603 -0.00506891 0)
(0.999599 -0.00497173 0)
(0.999592 -0.00487522 0)
(0.99958 -0.00477991 0)
(0.999563 -0.00468632 0)
(0.999543 -0.0045948 0)
(0.99952 -0.00450561 0)
(0.999497 -0.00441885 0)
(0.999475 -0.00433457 0)
(0.999454 -0.00425278 0)
(0.999435 -0.00417346 0)
(0.999417 -0.00409661 0)
(0.999402 -0.00402222 0)
(0.999389 -0.0039503 0)
(0.999376 -0.00388085 0)
(0.999366 -0.00381387 0)
(0.999356 -0.00374937 0)
(0.999347 -0.00368744 0)
(1.00056 -0.000221762 0)
(1.00056 -0.000789288 0)
(1.00057 -0.00125258 0)
(1.00058 -0.00174909 0)
(1.0006 -0.00223075 0)
(1.00062 -0.00270448 0)
(1.00063 -0.00317515 0)
(1.00065 -0.00364238 0)
(1.00067 -0.00410596 0)
(1.00069 -0.00456549 0)
(1.00071 -0.00502004 0)
(1.00073 -0.00546835 0)
(1.00075 -0.00590885 0)
(1.00076 -0.00633979 0)
(1.00076 -0.00675923 0)
(1.00077 -0.00716515 0)
(1.00077 -0.00755549 0)
(1.00076 -0.00792822 0)
(1.00075 -0.00828137 0)
(1.00073 -0.00861314 0)
(1.0007 -0.00892189 0)
(1.00067 -0.0092062 0)
(1.00063 -0.00946491 0)
(1.00059 -0.00969713 0)
(1.00054 -0.00990224 0)
(1.00049 -0.0100799 0)
(1.00043 -0.0102301 0)
(1.00036 -0.0103531 0)
(1.00029 -0.0104494 0)
(1.00022 -0.0105198 0)
(1.00015 -0.0105651 0)
(1.00007 -0.0105865 0)
(0.999994 -0.0105852 0)
(0.999915 -0.0105627 0)
(0.999835 -0.0105204 0)
(0.999755 -0.0104599 0)
(0.999675 -0.0103826 0)
(0.999596 -0.0102903 0)
(0.999519 -0.0101845 0)
(0.999443 -0.0100669 0)
(0.999368 -0.00993899 0)
(0.999296 -0.00980202 0)
(0.999226 -0.00965727 0)
(0.999158 -0.00950583 0)
(0.999092 -0.00934873 0)
(0.999028 -0.00918694 0)
(0.998965 -0.00902144 0)
(0.998901 -0.00885328 0)
(0.998837 -0.00868355 0)
(0.99877 -0.00851337 0)
(0.998703 -0.00834377 0)
(0.998638 -0.00817559 0)
(0.998578 -0.00800942 0)
(0.998526 -0.00784557 0)
(0.998483 -0.00768423 0)
(0.998449 -0.00752555 0)
(0.998422 -0.00736972 0)
(0.998399 -0.00721701 0)
(0.99838 -0.00706773 0)
(0.998363 -0.0069222 0)
(0.998346 -0.00678071 0)
(0.99833 -0.00664349 0)
(0.998313 -0.0065107 0)
(0.998297 -0.00638248 0)
(0.998281 -0.0062589 0)
(0.998265 -0.00613998 0)
(0.99825 -0.00602572 0)
(0.998235 -0.00591614 0)
(0.998221 -0.00581123 0)
(1.0011 -0.000314774 0)
(1.0011 -0.00110851 0)
(1.00113 -0.00175834 0)
(1.00115 -0.00245804 0)
(1.00118 -0.00313259 0)
(1.00121 -0.0037964 0)
(1.00124 -0.00445532 0)
(1.00128 -0.00510848 0)
(1.00132 -0.00575584 0)
(1.00135 -0.0063969 0)
(1.00139 -0.00703042 0)
(1.00142 -0.00765473 0)
(1.00144 -0.00826779 0)
(1.00146 -0.00886723 0)
(1.00147 -0.00945049 0)
(1.00148 -0.0100149 0)
(1.00147 -0.0105575 0)
(1.00145 -0.0110758 0)
(1.00142 -0.0115671 0)
(1.00138 -0.0120288 0)
(1.00133 -0.0124587 0)
(1.00127 -0.0128549 0)
(1.0012 -0.0132157 0)
(1.00111 -0.01354 0)
(1.00101 -0.0138267 0)
(1.00091 -0.0140755 0)
(1.00079 -0.0142861 0)
(1.00067 -0.014459 0)
(1.00053 -0.0145946 0)
(1.0004 -0.0146939 0)
(1.00025 -0.0147581 0)
(1.00011 -0.0147887 0)
(0.999958 -0.0147873 0)
(0.999806 -0.0147559 0)
(0.999654 -0.0146963 0)
(0.999502 -0.0146108 0)
(0.999351 -0.0145015 0)
(0.999202 -0.0143705 0)
(0.999055 -0.0142199 0)
(0.998911 -0.0140517 0)
(0.99877 -0.013868 0)
(0.998633 -0.0136708 0)
(0.9985 -0.0134621 0)
(0.998371 -0.013244 0)
(0.998248 -0.0130182 0)
(0.99813 -0.0127867 0)
(0.998019 -0.0125511 0)
(0.997917 -0.0123128 0)
(0.997824 -0.0120729 0)
(0.997743 -0.0118321 0)
(0.99767 -0.0115914 0)
(0.997603 -0.0113513 0)
(0.997538 -0.0111129 0)
(0.99747 -0.010877 0)
(0.997399 -0.0106449 0)
(0.997323 -0.0104173 0)
(0.997246 -0.0101949 0)
(0.997169 -0.00997833 0)
(0.997095 -0.00976769 0)
(0.997025 -0.00956316 0)
(0.996961 -0.00936482 0)
(0.996901 -0.00917271 0)
(0.996846 -0.00898685 0)
(0.996795 -0.00880729 0)
(0.996749 -0.00863403 0)
(0.996707 -0.00846707 0)
(0.996667 -0.0083064 0)
(0.996631 -0.00815202 0)
(0.996598 -0.00800396 0)
(1.00175 -0.000402377 0)
(1.00176 -0.00140863 0)
(1.0018 -0.00223762 0)
(1.00183 -0.00313067 0)
(1.00187 -0.00398828 0)
(1.00192 -0.00483433 0)
(1.00198 -0.00567428 0)
(1.00203 -0.00650704 0)
(1.00209 -0.007333 0)
(1.00215 -0.00815162 0)
(1.0022 -0.00896145 0)
(1.00225 -0.00976051 0)
(1.00228 -0.0105463 0)
(1.00231 -0.011316 0)
(1.00233 -0.0120665 0)
(1.00233 -0.0127942 0)
(1.00232 -0.0134959 0)
(1.0023 -0.014168 0)
(1.00225 -0.0148071 0)
(1.00219 -0.01541 0)
(1.00211 -0.0159739 0)
(1.00201 -0.016496 0)
(1.00189 -0.0169741 0)
(1.00176 -0.0174065 0)
(1.0016 -0.0177918 0)
(1.00144 -0.0181291 0)
(1.00125 -0.0184182 0)
(1.00106 -0.018659 0)
(1.00085 -0.0188521 0)
(1.00063 -0.0189986 0)
(1.00041 -0.0190997 0)
(1.00017 -0.0191574 0)
(0.999935 -0.0191736 0)
(0.999693 -0.0191506 0)
(0.99945 -0.019091 0)
(0.999207 -0.0189973 0)
(0.998965 -0.0188722 0)
(0.998726 -0.0187186 0)
(0.998489 -0.0185393 0)
(0.998258 -0.018337 0)
(0.998031 -0.0181146 0)
(0.997811 -0.0178745 0)
(0.997596 -0.0176194 0)
(0.997389 -0.0173515 0)
(0.997189 -0.0170727 0)
(0.996995 -0.0167851 0)
(0.996807 -0.0164903 0)
(0.996623 -0.0161902 0)
(0.996442 -0.0158865 0)
(0.996261 -0.0155811 0)
(0.996084 -0.0152756 0)
(0.995913 -0.0149718 0)
(0.995754 -0.0146706 0)
(0.99561 -0.014373 0)
(0.995483 -0.0140793 0)
(0.995373 -0.0137902 0)
(0.995275 -0.013506 0)
(0.995188 -0.0132274 0)
(0.995107 -0.0129549 0)
(0.995031 -0.0126892 0)
(0.994958 -0.0124306 0)
(0.994888 -0.0121797 0)
(0.994821 -0.0119367 0)
(0.994757 -0.0117018 0)
(0.994695 -0.0114751 0)
(0.994637 -0.0112568 0)
(0.994582 -0.0110467 0)
(0.994529 -0.010845 0)
(0.99448 -0.0106516 0)
(1.00249 -0.000483655 0)
(1.00251 -0.00168675 0)
(1.00255 -0.00268472 0)
(1.0026 -0.00375878 0)
(1.00266 -0.00478831 0)
(1.00273 -0.00580738 0)
(1.00281 -0.00682014 0)
(1.00289 -0.00782572 0)
(1.00297 -0.00882506 0)
(1.00305 -0.00981768 0)
(1.00313 -0.010802 0)
(1.00319 -0.0117759 0)
(1.00325 -0.0127365 0)
(1.00329 -0.0136806 0)
(1.00332 -0.0146044 0)
(1.00333 -0.0155038 0)
(1.00332 -0.0163749 0)
(1.00328 -0.0172132 0)
(1.00323 -0.0180147 0)
(1.00314 -0.0187752 0)
(1.00303 -0.0194911 0)
(1.0029 -0.0201589 0)
(1.00273 -0.0207756 0)
(1.00255 -0.0213387 0)
(1.00233 -0.0218462 0)
(1.0021 -0.0222966 0)
(1.00184 -0.0226891 0)
(1.00156 -0.0230235 0)
(1.00127 -0.0233 0)
(1.00096 -0.0235195 0)
(1.00064 -0.0236833 0)
(1.0003 -0.0237932 0)
(0.999961 -0.0238514 0)
(0.999614 -0.0238603 0)
(0.999263 -0.0238226 0)
(0.998912 -0.0237413 0)
(0.998561 -0.0236195 0)
(0.998213 -0.0234604 0)
(0.997869 -0.0232671 0)
(0.997531 -0.0230431 0)
(0.9972 -0.0227916 0)
(0.996877 -0.0225157 0)
(0.996562 -0.0222186 0)
(0.996258 -0.0219034 0)
(0.995963 -0.0215733 0)
(0.99568 -0.0212313 0)
(0.99541 -0.02088 0)
(0.995155 -0.0205219 0)
(0.994918 -0.0201592 0)
(0.994699 -0.0197935 0)
(0.994498 -0.0194262 0)
(0.99431 -0.0190587 0)
(0.994129 -0.0186923 0)
(0.993949 -0.0183286 0)
(0.99377 -0.0179693 0)
(0.99359 -0.0176156 0)
(0.993413 -0.0172687 0)
(0.993242 -0.0169295 0)
(0.99308 -0.0165985 0)
(0.992928 -0.0162761 0)
(0.992787 -0.0159626 0)
(0.992657 -0.0156581 0)
(0.992536 -0.015363 0)
(0.992424 -0.0150774 0)
(0.99232 -0.0148014 0)
(0.992224 -0.0145351 0)
(0.992134 -0.0142785 0)
(0.992051 -0.0140318 0)
(0.991973 -0.0137949 0)
(1.00331 -0.000559576 0)
(1.00333 -0.00194439 0)
(1.00339 -0.00309967 0)
(1.00345 -0.00434252 0)
(1.00353 -0.00553327 0)
(1.00363 -0.00671618 0)
(1.00373 -0.00789366 0)
(1.00384 -0.00906546 0)
(1.00396 -0.0102332 0)
(1.00407 -0.0113965 0)
(1.00417 -0.0125539 0)
(1.00427 -0.0137031 0)
(1.00435 -0.014841 0)
(1.00442 -0.015964 0)
(1.00446 -0.0170678 0)
(1.00448 -0.0181479 0)
(1.00448 -0.0191995 0)
(1.00444 -0.0202174 0)
(1.00438 -0.0211968 0)
(1.00428 -0.0221326 0)
(1.00414 -0.0230201 0)
(1.00397 -0.023855 0)
(1.00377 -0.0246334 0)
(1.00353 -0.0253517 0)
(1.00325 -0.0260072 0)
(1.00294 -0.0265976 0)
(1.00261 -0.0271212 0)
(1.00224 -0.0275773 0)
(1.00185 -0.0279656 0)
(1.00144 -0.0282864 0)
(1.00101 -0.0285408 0)
(1.00056 -0.0287303 0)
(1.0001 -0.0288571 0)
(0.999635 -0.0289237 0)
(0.999161 -0.0289332 0)
(0.998683 -0.028889 0)
(0.998205 -0.0287945 0)
(0.99773 -0.0286537 0)
(0.997259 -0.0284704 0)
(0.996795 -0.0282487 0)
(0.996339 -0.0279926 0)
(0.995894 -0.027706 0)
(0.99546 -0.0273925 0)
(0.99504 -0.0270556 0)
(0.994633 -0.0266986 0)
(0.99424 -0.0263242 0)
(0.993859 -0.0259352 0)
(0.99349 -0.0255342 0)
(0.993129 -0.0251238 0)
(0.992776 -0.0247066 0)
(0.992432 -0.0242852 0)
(0.992102 -0.0238623 0)
(0.991791 -0.02344 0)
(0.991506 -0.0230198 0)
(0.991248 -0.0226031 0)
(0.991016 -0.0221908 0)
(0.990806 -0.021784 0)
(0.990612 -0.0213837 0)
(0.990431 -0.0209911 0)
(0.990259 -0.020607 0)
(0.990095 -0.0202324 0)
(0.98994 -0.0198679 0)
(0.989791 -0.019514 0)
(0.98965 -0.0191712 0)
(0.989516 -0.0188397 0)
(0.98939 -0.0185197 0)
(0.989271 -0.0182113 0)
(0.989159 -0.0179147 0)
(0.989054 -0.0176298 0)
(1.0042 -0.000630756 0)
(1.00422 -0.00218266 0)
(1.00429 -0.00348282 0)
(1.00438 -0.00488242 0)
(1.00449 -0.00622373 0)
(1.00461 -0.00756094 0)
(1.00475 -0.00889457 0)
(1.0049 -0.0102254 0)
(1.00505 -0.0115557 0)
(1.0052 -0.0128854 0)
(1.00534 -0.014213 0)
(1.00547 -0.0155364 0)
(1.00559 -0.0168525 0)
(1.00569 -0.0181571 0)
(1.00576 -0.0194459 0)
(1.00581 -0.0207135 0)
(1.00582 -0.0219546 0)
(1.00579 -0.0231634 0)
(1.00572 -0.024334 0)
(1.00561 -0.0254606 0)
(1.00546 -0.0265373 0)
(1.00526 -0.0275589 0)
(1.00502 -0.0285203 0)
(1.00473 -0.0294168 0)
(1.00439 -0.0302447 0)
(1.00401 -0.0310006 0)
(1.00359 -0.0316819 0)
(1.00314 -0.0322869 0)
(1.00265 -0.0328145 0)
(1.00212 -0.0332644 0)
(1.00158 -0.0336371 0)
(1.001 -0.0339338 0)
(1.00041 -0.0341564 0)
(0.99981 -0.0343073 0)
(0.999197 -0.0343895 0)
(0.998577 -0.0344063 0)
(0.997955 -0.0343614 0)
(0.997335 -0.0342585 0)
(0.996719 -0.0341019 0)
(0.996111 -0.0338955 0)
(0.995514 -0.0336436 0)
(0.994928 -0.0333506 0)
(0.994358 -0.0330206 0)
(0.993803 -0.0326581 0)
(0.993265 -0.0322676 0)
(0.992746 -0.0318536 0)
(0.992248 -0.0314203 0)
(0.991772 -0.0309719 0)
(0.991323 -0.0305122 0)
(0.990902 -0.0300442 0)
(0.990509 -0.0295705 0)
(0.990138 -0.0290933 0)
(0.989783 -0.0286145 0)
(0.989437 -0.0281362 0)
(0.989096 -0.0276605 0)
(0.988761 -0.0271893 0)
(0.988436 -0.0267244 0)
(0.988125 -0.0262672 0)
(0.987831 -0.0258187 0)
(0.987555 -0.0253796 0)
(0.987299 -0.0249508 0)
(0.98706 -0.0245328 0)
(0.986838 -0.0241261 0)
(0.986632 -0.0237313 0)
(0.98644 -0.0233486 0)
(0.98626 -0.0229784 0)
(0.986093 -0.022621 0)
(0.985937 -0.0222765 0)
(0.985791 -0.021945 0)
(1.00514 -0.000696984 0)
(1.00518 -0.00240129 0)
(1.00526 -0.00383393 0)
(1.00537 -0.005378 0)
(1.00551 -0.00685864 0)
(1.00567 -0.00833976 0)
(1.00585 -0.00981997 0)
(1.00603 -0.0113012 0)
(1.00623 -0.0127866 0)
(1.00642 -0.0142762 0)
(1.00661 -0.0157691 0)
(1.00679 -0.0172631 0)
(1.00695 -0.0187551 0)
(1.00709 -0.020241 0)
(1.0072 -0.0217159 0)
(1.00728 -0.0231743 0)
(1.00731 -0.0246101 0)
(1.0073 -0.0260169 0)
(1.00725 -0.027388 0)
(1.00714 -0.0287166 0)
(1.00697 -0.029996 0)
(1.00675 -0.0312196 0)
(1.00648 -0.0323812 0)
(1.00614 -0.0334751 0)
(1.00575 -0.0344961 0)
(1.0053 -0.0354397 0)
(1.0048 -0.0363021 0)
(1.00425 -0.0370804 0)
(1.00366 -0.0377725 0)
(1.00302 -0.0383772 0)
(1.00235 -0.0388943 0)
(1.00165 -0.0393241 0)
(1.00092 -0.039668 0)
(1.00017 -0.0399279 0)
(0.999407 -0.0401066 0)
(0.998631 -0.0402073 0)
(0.997851 -0.0402339 0)
(0.997069 -0.0401906 0)
(0.996291 -0.0400822 0)
(0.99552 -0.0399137 0)
(0.994759 -0.0396904 0)
(0.994012 -0.0394175 0)
(0.993281 -0.0391002 0)
(0.992569 -0.0387437 0)
(0.991878 -0.0383526 0)
(0.991208 -0.0379311 0)
(0.99056 -0.0374831 0)
(0.989933 -0.0370123 0)
(0.989325 -0.036522 0)
(0.988733 -0.0360159 0)
(0.988159 -0.0354976 0)
(0.987607 -0.0349708 0)
(0.987083 -0.0344391 0)
(0.986596 -0.0339052 0)
(0.986147 -0.0333718 0)
(0.985736 -0.0328406 0)
(0.985357 -0.0323135 0)
(0.985004 -0.0317923 0)
(0.984671 -0.0312785 0)
(0.984355 -0.0307739 0)
(0.984055 -0.0302796 0)
(0.98377 -0.0297968 0)
(0.9835 -0.0293265 0)
(0.983244 -0.0288695 0)
(0.983003 -0.0284262 0)
(0.982775 -0.0279971 0)
(0.982561 -0.0275825 0)
(0.982359 -0.0271828 0)
(0.982171 -0.026798 0)
(1.00612 -0.000757766 0)
(1.00617 -0.00259984 0)
(1.00627 -0.00415303 0)
(1.00641 -0.00582908 0)
(1.00658 -0.00743728 0)
(1.00678 -0.00905117 0)
(1.007 -0.0106673 0)
(1.00723 -0.0122891 0)
(1.00748 -0.0139203 0)
(1.00772 -0.0155615 0)
(1.00797 -0.017212 0)
(1.0082 -0.0188702 0)
(1.00841 -0.0205328 0)
(1.0086 -0.0221959 0)
(1.00875 -0.0238544 0)
(1.00887 -0.0255024 0)
(1.00894 -0.0271336 0)
(1.00896 -0.0287409 0)
(1.00892 -0.0303168 0)
(1.00883 -0.0318538 0)
(1.00866 -0.0333441 0)
(1.00843 -0.0347802 0)
(1.00813 -0.0361545 0)
(1.00776 -0.03746 0)
(1.00732 -0.0386903 0)
(1.00681 -0.0398395 0)
(1.00624 -0.0409025 0)
(1.0056 -0.041875 0)
(1.00491 -0.0427536 0)
(1.00416 -0.043536 0)
(1.00336 -0.0442207 0)
(1.00253 -0.0448073 0)
(1.00165 -0.0452962 0)
(1.00075 -0.0456889 0)
(0.999824 -0.0459876 0)
(0.998881 -0.0461954 0)
(0.997928 -0.0463159 0)
(0.996971 -0.0463535 0)
(0.996014 -0.0463126 0)
(0.995063 -0.0461981 0)
(0.994122 -0.0460152 0)
(0.993197 -0.0457689 0)
(0.992289 -0.0454645 0)
(0.991403 -0.0451075 0)
(0.990542 -0.0447036 0)
(0.989707 -0.0442587 0)
(0.988901 -0.0437788 0)
(0.988126 -0.0432699 0)
(0.987388 -0.0427378 0)
(0.986688 -0.0421877 0)
(0.986027 -0.0416237 0)
(0.985402 -0.0410495 0)
(0.984805 -0.0404678 0)
(0.984227 -0.0398815 0)
(0.983663 -0.0392933 0)
(0.983114 -0.0387062 0)
(0.982585 -0.0381226 0)
(0.982079 -0.0375447 0)
(0.981601 -0.0369745 0)
(0.981152 -0.0364133 0)
(0.980732 -0.0358625 0)
(0.98034 -0.0353232 0)
(0.979974 -0.0347965 0)
(0.979632 -0.0342833 0)
(0.979312 -0.0337844 0)
(0.979013 -0.0333003 0)
(0.978733 -0.0328315 0)
(0.978471 -0.0323786 0)
(0.978225 -0.0319418 0)
(1.00713 -0.000812855 0)
(1.00719 -0.00277845 0)
(1.00731 -0.00444087 0)
(1.00747 -0.00623644 0)
(1.00768 -0.00796028 0)
(1.00791 -0.00969539 0)
(1.00818 -0.0114363 0)
(1.00847 -0.0131876 0)
(1.00877 -0.014954 0)
(1.00907 -0.0167367 0)
(1.00938 -0.0185354 0)
(1.00967 -0.0203487 0)
(1.00994 -0.022174 0)
(1.01019 -0.0240071 0)
(1.0104 -0.0258431 0)
(1.01057 -0.027676 0)
(1.01069 -0.0294991 0)
(1.01075 -0.031305 0)
(1.01074 -0.0330857 0)
(1.01067 -0.0348327 0)
(1.01052 -0.0365376 0)
(1.01029 -0.0381917 0)
(1.00998 -0.0397864 0)
(1.00959 -0.0413134 0)
(1.00911 -0.042765 0)
(1.00855 -0.0441337 0)
(1.00791 -0.045413 0)
(1.00719 -0.0465972 0)
(1.0064 -0.0476815 0)
(1.00555 -0.0486619 0)
(1.00463 -0.0495359 0)
(1.00365 -0.0503018 0)
(1.00263 -0.0509589 0)
(1.00157 -0.0515079 0)
(1.00048 -0.0519503 0)
(0.999358 -0.0522884 0)
(0.99822 -0.0525255 0)
(0.997073 -0.0526657 0)
(0.995922 -0.0527136 0)
(0.994773 -0.0526747 0)
(0.993633 -0.0525549 0)
(0.992507 -0.0523606 0)
(0.991399 -0.0520984 0)
(0.990314 -0.051775 0)
(0.989255 -0.0513968 0)
(0.988226 -0.0509697 0)
(0.987228 -0.0504992 0)
(0.986261 -0.0499902 0)
(0.985326 -0.0494473 0)
(0.98442 -0.0488748 0)
(0.983542 -0.0482776 0)
(0.982695 -0.0476605 0)
(0.981888 -0.0470288 0)
(0.981127 -0.0463872 0)
(0.980418 -0.0457398 0)
(0.979759 -0.04509 0)
(0.979146 -0.0444407 0)
(0.97857 -0.0437946 0)
(0.978026 -0.0431542 0)
(0.97751 -0.0425218 0)
(0.977021 -0.0418994 0)
(0.976556 -0.041289 0)
(0.976116 -0.040692 0)
(0.9757 -0.0401096 0)
(0.975308 -0.0395428 0)
(0.974939 -0.0389926 0)
(0.974591 -0.0384594 0)
(0.974265 -0.037944 0)
(0.973958 -0.0374467 0)
(1.00815 -0.000862386 0)
(1.00821 -0.00293796 0)
(1.00836 -0.00469885 0)
(1.00855 -0.00660183 0)
(1.00879 -0.00842964 0)
(1.00907 -0.0102744 0)
(1.00939 -0.0121285 0)
(1.00973 -0.0139979 0)
(1.01009 -0.0158883 0)
(1.01046 -0.0178012 0)
(1.01083 -0.0197371 0)
(1.01119 -0.0216952 0)
(1.01154 -0.0236729 0)
(1.01185 -0.0256665 0)
(1.01213 -0.0276714 0)
(1.01236 -0.0296814 0)
(1.01254 -0.0316899 0)
(1.01265 -0.0336891 0)
(1.01269 -0.0356706 0)
(1.01266 -0.0376256 0)
(1.01253 -0.0395448 0)
(1.01232 -0.0414187 0)
(1.01202 -0.0432376 0)
(1.01161 -0.0449922 0)
(1.01111 -0.0466733 0)
(1.01051 -0.0482721 0)
(1.00982 -0.0497805 0)
(1.00903 -0.0511913 0)
(1.00815 -0.0524981 0)
(1.00719 -0.0536955 0)
(1.00616 -0.0547791 0)
(1.00505 -0.055746 0)
(1.00388 -0.0565941 0)
(1.00266 -0.0573228 0)
(1.00139 -0.0579325 0)
(1.00008 -0.0584247 0)
(0.998753 -0.0588021 0)
(0.997405 -0.0590683 0)
(0.996046 -0.0592277 0)
(0.994686 -0.0592854 0)
(0.993331 -0.0592468 0)
(0.991988 -0.0591179 0)
(0.990665 -0.0589046 0)
(0.989365 -0.0586132 0)
(0.988095 -0.0582504 0)
(0.986858 -0.0578231 0)
(0.985659 -0.0573388 0)
(0.9845 -0.0568055 0)
(0.983386 -0.0562309 0)
(0.982321 -0.0556225 0)
(0.981307 -0.0549872 0)
(0.980344 -0.0543302 0)
(0.979423 -0.0536561 0)
(0.978538 -0.0529686 0)
(0.97768 -0.0522716 0)
(0.97685 -0.0515689 0)
(0.97605 -0.0508642 0)
(0.975286 -0.0501611 0)
(0.974563 -0.0494624 0)
(0.973882 -0.0487707 0)
(0.973243 -0.0480882 0)
(0.972643 -0.0474167 0)
(0.972081 -0.0467581 0)
(0.971554 -0.0461138 0)
(0.971061 -0.0454852 0)
(0.970598 -0.0448733 0)
(0.970164 -0.0442791 0)
(0.969757 -0.0437035 0)
(0.969376 -0.043147 0)
(1.00916 -0.000906752 0)
(1.00924 -0.00307975 0)
(1.00941 -0.00492881 0)
(1.00963 -0.00692769 0)
(1.00991 -0.00884831 0)
(1.01024 -0.0107915 0)
(1.01061 -0.0127474 0)
(1.01101 -0.0147235 0)
(1.01144 -0.0167261 0)
(1.01187 -0.0187577 0)
(1.01232 -0.0208192 0)
(1.01275 -0.0229103 0)
(1.01317 -0.0250292 0)
(1.01356 -0.0271724 0)
(1.01391 -0.0293356 0)
(1.01422 -0.0315129 0)
(1.01447 -0.0336977 0)
(1.01464 -0.0358823 0)
(1.01474 -0.0380582 0)
(1.01476 -0.040216 0)
(1.01468 -0.0423462 0)
(1.0145 -0.0444383 0)
(1.01421 -0.0464821 0)
(1.01381 -0.0484671 0)
(1.0133 -0.0503829 0)
(1.01268 -0.0522194 0)
(1.01194 -0.0539671 0)
(1.0111 -0.055617 0)
(1.01015 -0.0571612 0)
(1.00909 -0.0585924 0)
(1.00794 -0.0599047 0)
(1.00671 -0.0610932 0)
(1.0054 -0.0621544 0)
(1.00401 -0.063086 0)
(1.00257 -0.0638871 0)
(1.00108 -0.0645581 0)
(0.99955 -0.0651006 0)
(0.997992 -0.0655173 0)
(0.996415 -0.065812 0)
(0.99483 -0.0659896 0)
(0.993244 -0.0660557 0)
(0.991667 -0.0660169 0)
(0.990105 -0.0658806 0)
(0.988567 -0.0656547 0)
(0.987057 -0.0653473 0)
(0.985581 -0.0649663 0)
(0.984144 -0.0645191 0)
(0.982749 -0.0640122 0)
(0.981397 -0.0634516 0)
(0.980087 -0.0628429 0)
(0.978819 -0.0621919 0)
(0.977595 -0.0615047 0)
(0.97642 -0.0607883 0)
(0.975303 -0.0600495 0)
(0.974252 -0.0592948 0)
(0.973266 -0.0585292 0)
(0.972342 -0.0577574 0)
(0.971472 -0.0569834 0)
(0.970648 -0.0562107 0)
(0.969867 -0.055443 0)
(0.969126 -0.0546832 0)
(0.968423 -0.053934 0)
(0.967757 -0.0531979 0)
(0.967129 -0.0524769 0)
(0.966536 -0.0517725 0)
(0.965977 -0.0510863 0)
(0.965452 -0.0504193 0)
(0.964958 -0.0497727 0)
(0.964495 -0.0491471 0)
(1.01017 -0.000946433 0)
(1.01026 -0.00320532 0)
(1.01045 -0.00513281 0)
(1.0107 -0.00721681 0)
(1.01102 -0.00921976 0)
(1.0114 -0.0112507 0)
(1.01183 -0.0132974 0)
(1.01229 -0.015369 0)
(1.01278 -0.0174724 0)
(1.01329 -0.0196108 0)
(1.01381 -0.021786 0)
(1.01432 -0.0239982 0)
(1.01482 -0.0262461 0)
(1.0153 -0.028527 0)
(1.01574 -0.0308368 0)
(1.01612 -0.0331702 0)
(1.01645 -0.0355207 0)
(1.0167 -0.037881 0)
(1.01688 -0.0402423 0)
(1.01695 -0.0425956 0)
(1.01693 -0.0449307 0)
(1.01679 -0.0472369 0)
(1.01654 -0.0495034 0)
(1.01617 -0.0517187 0)
(1.01566 -0.0538715 0)
(1.01503 -0.0559505 0)
(1.01427 -0.0579448 0)
(1.01338 -0.0598439 0)
(1.01237 -0.061638 0)
(1.01124 -0.0633182 0)
(1.00999 -0.0648766 0)
(1.00864 -0.0663065 0)
(1.00719 -0.0676024 0)
(1.00565 -0.0687604 0)
(1.00404 -0.0697779 0)
(1.00236 -0.0706535 0)
(1.00063 -0.0713876 0)
(0.998858 -0.0719818 0)
(0.997055 -0.0724389 0)
(0.995234 -0.0727632 0)
(0.993404 -0.0729597 0)
(0.991578 -0.0730344 0)
(0.989764 -0.0729936 0)
(0.987971 -0.072844 0)
(0.986208 -0.0725929 0)
(0.984482 -0.0722478 0)
(0.982798 -0.0718172 0)
(0.981162 -0.0713102 0)
(0.97958 -0.0707366 0)
(0.978056 -0.0701063 0)
(0.976595 -0.0694289 0)
(0.975198 -0.0687126 0)
(0.973863 -0.067964 0)
(0.972582 -0.0671888 0)
(0.971347 -0.066392 0)
(0.970154 -0.0655787 0)
(0.969007 -0.0647544 0)
(0.967911 -0.0639241 0)
(0.966871 -0.0630922 0)
(0.965888 -0.0622627 0)
(0.964962 -0.061439 0)
(0.964091 -0.0606241 0)
(0.963273 -0.0598208 0)
(0.962504 -0.0590314 0)
(0.961782 -0.0582582 0)
(0.961104 -0.0575028 0)
(0.960467 -0.0567668 0)
(0.95987 -0.0560517 0)
(0.959309 -0.0553585 0)
(1.01116 -0.000981852 0)
(1.01127 -0.00331606 0)
(1.01148 -0.00531286 0)
(1.01176 -0.00747196 0)
(1.01212 -0.00954745 0)
(1.01255 -0.011656 0)
(1.01303 -0.0137832 0)
(1.01356 -0.0159393 0)
(1.01412 -0.0181324 0)
(1.0147 -0.0203662 0)
(1.0153 -0.0226432 0)
(1.0159 -0.0249644 0)
(1.01649 -0.0273291 0)
(1.01705 -0.0297352 0)
(1.01758 -0.0321792 0)
(1.01805 -0.0346565 0)
(1.01847 -0.037161 0)
(1.01881 -0.0396856 0)
(1.01906 -0.0422221 0)
(1.01922 -0.0447613 0)
(1.01926 -0.0472932 0)
(1.01919 -0.0498071 0)
(1.01899 -0.0522914 0)
(1.01865 -0.0547344 0)
(1.01818 -0.0571238 0)
(1.01755 -0.0594475 0)
(1.01679 -0.0616931 0)
(1.01588 -0.0638488 0)
(1.01482 -0.0659032 0)
(1.01362 -0.0678456 0)
(1.0123 -0.0696662 0)
(1.01084 -0.0713562 0)
(1.00927 -0.0729081 0)
(1.00758 -0.0743159 0)
(1.00581 -0.0755749 0)
(1.00395 -0.076682 0)
(1.00201 -0.0776357 0)
(1.00003 -0.0784359 0)
(0.997992 -0.0790843 0)
(0.995928 -0.0795837 0)
(0.993845 -0.0799384 0)
(0.991756 -0.080154 0)
(0.989673 -0.0802372 0)
(0.987606 -0.0801961 0)
(0.985564 -0.0800396 0)
(0.983556 -0.079777 0)
(0.98159 -0.0794177 0)
(0.979672 -0.0789706 0)
(0.977806 -0.0784434 0)
(0.975995 -0.0778434 0)
(0.97424 -0.0771775 0)
(0.972542 -0.0764532 0)
(0.970905 -0.0756789 0)
(0.969339 -0.0748636 0)
(0.967851 -0.0740164 0)
(0.966447 -0.0731451 0)
(0.965124 -0.0722564 0)
(0.963875 -0.0713559 0)
(0.962691 -0.070449 0)
(0.961568 -0.0695406 0)
(0.960503 -0.0686353 0)
(0.959492 -0.0677372 0)
(0.958536 -0.0668497 0)
(0.957632 -0.065976 0)
(0.95678 -0.0651188 0)
(0.955977 -0.0642803 0)
(0.955221 -0.0634624 0)
(0.95451 -0.0626668 0)
(0.953843 -0.0618949 0)
(1.01214 -0.00101332 0)
(1.01225 -0.00341315 0)
(1.01248 -0.00547082 0)
(1.0128 -0.00769575 0)
(1.0132 -0.00983466 0)
(1.01368 -0.0120114 0)
(1.01422 -0.0142091 0)
(1.01481 -0.0164396 0)
(1.01544 -0.0187117 0)
(1.0161 -0.0210297 0)
(1.01678 -0.023397 0)
(1.01747 -0.0258152 0)
(1.01814 -0.0282843 0)
(1.0188 -0.0308031 0)
(1.01942 -0.0333687 0)
(1.02 -0.0359772 0)
(1.02051 -0.0386231 0)
(1.02095 -0.0412999 0)
(1.02129 -0.0439999 0)
(1.02154 -0.0467142 0)
(1.02166 -0.0494332 0)
(1.02167 -0.0521462 0)
(1.02153 -0.0548415 0)
(1.02125 -0.0575071 0)
(1.02082 -0.0601302 0)
(1.02023 -0.062698 0)
(1.01947 -0.0651971 0)
(1.01856 -0.0676145 0)
(1.01748 -0.0699372 0)
(1.01624 -0.0721529 0)
(1.01484 -0.0742498 0)
(1.0133 -0.0762172 0)
(1.01162 -0.0780453 0)
(1.00981 -0.0797257 0)
(1.00788 -0.0812515 0)
(1.00584 -0.0826175 0)
(1.00372 -0.0838198 0)
(1.00152 -0.0848566 0)
(0.999252 -0.0857275 0)
(0.99694 -0.0864341 0)
(0.994596 -0.0869794 0)
(0.992235 -0.087368 0)
(0.989869 -0.0876054 0)
(0.987512 -0.0876984 0)
(0.985177 -0.087654 0)
(0.982875 -0.08748 0)
(0.980615 -0.087185 0)
(0.978407 -0.0867788 0)
(0.976257 -0.0862721 0)
(0.974174 -0.0856769 0)
(0.972162 -0.0850057 0)
(0.970229 -0.0842698 0)
(0.968376 -0.0834793 0)
(0.966597 -0.0826422 0)
(0.964887 -0.0817655 0)
(0.963238 -0.080856 0)
(0.961653 -0.0799211 0)
(0.960135 -0.0789678 0)
(0.958691 -0.0780027 0)
(0.957323 -0.0770318 0)
(0.956031 -0.07606 0)
(0.954813 -0.075092 0)
(0.953666 -0.074132 0)
(0.952587 -0.0731835 0)
(0.951571 -0.0722498 0)
(0.950617 -0.0713338 0)
(0.949719 -0.0704379 0)
(0.948877 -0.0695644 0)
(0.948086 -0.0687152 0)
(1.01309 -0.00104109 0)
(1.01322 -0.00349762 0)
(1.01347 -0.00560846 0)
(1.01382 -0.0078907 0)
(1.01426 -0.0100846 0)
(1.01479 -0.0123206 0)
(1.01538 -0.0145797 0)
(1.01604 -0.016875 0)
(1.01674 -0.019216 0)
(1.01748 -0.0216076 0)
(1.01824 -0.024054 0)
(1.01902 -0.0265576 0)
(1.01979 -0.0291192 0)
(1.02054 -0.0317383 0)
(1.02126 -0.0344129 0)
(1.02194 -0.0371397 0)
(1.02255 -0.0399141 0)
(1.02309 -0.0427303 0)
(1.02354 -0.0455814 0)
(1.02388 -0.048459 0)
(1.02411 -0.0513539 0)
(1.0242 -0.0542557 0)
(1.02414 -0.0571532 0)
(1.02394 -0.0600343 0)
(1.02356 -0.062886 0)
(1.02302 -0.0656948 0)
(1.0223 -0.068447 0)
(1.0214 -0.0711284 0)
(1.02032 -0.0737248 0)
(1.01906 -0.0762224 0)
(1.01763 -0.0786075 0)
(1.01602 -0.0808674 0)
(1.01425 -0.0829902 0)
(1.01233 -0.084965 0)
(1.01026 -0.0867826 0)
(1.00806 -0.0884349 0)
(1.00575 -0.0899158 0)
(1.00335 -0.091221 0)
(1.00085 -0.092348 0)
(0.998296 -0.093296 0)
(0.995689 -0.0940662 0)
(0.993048 -0.0946616 0)
(0.99039 -0.0950867 0)
(0.98773 -0.0953479 0)
(0.985083 -0.0954532 0)
(0.982462 -0.0954122 0)
(0.979877 -0.0952352 0)
(0.97734 -0.094933 0)
(0.974859 -0.0945158 0)
(0.972441 -0.0939928 0)
(0.97009 -0.0933726 0)
(0.967811 -0.0926638 0)
(0.965605 -0.0918763 0)
(0.963482 -0.0910212 0)
(0.961452 -0.0901102 0)
(0.959524 -0.0891546 0)
(0.957698 -0.0881638 0)
(0.95597 -0.087146 0)
(0.954332 -0.0861088 0)
(0.952776 -0.0850591 0)
(0.9513 -0.0840035 0)
(0.949899 -0.0829478 0)
(0.948574 -0.0818976 0)
(0.94732 -0.0808573 0)
(0.946138 -0.0798311 0)
(0.945023 -0.0788226 0)
(0.943974 -0.0778346 0)
(0.942987 -0.07687 0)
(0.942061 -0.0759309 0)
(1.01401 -0.00106542 0)
(1.01415 -0.00357052 0)
(1.01443 -0.00572753 0)
(1.0148 -0.0080593 0)
(1.01529 -0.0103004 0)
(1.01586 -0.0125876 0)
(1.01652 -0.0148995 0)
(1.01724 -0.0172507 0)
(1.01801 -0.0196511 0)
(1.01883 -0.0221064 0)
(1.01967 -0.0246215 0)
(1.02053 -0.0271995 0)
(1.0214 -0.0298421 0)
(1.02225 -0.0325495 0)
(1.02308 -0.0353206 0)
(1.02386 -0.038153 0)
(1.02458 -0.0410429 0)
(1.02523 -0.0439856 0)
(1.02579 -0.0469746 0)
(1.02624 -0.0500028 0)
(1.02657 -0.0530614 0)
(1.02676 -0.0561407 0)
(1.0268 -0.05923 0)
(1.02669 -0.0623174 0)
(1.02639 -0.0653902 0)
(1.02592 -0.0684348 0)
(1.02526 -0.0714369 0)
(1.0244 -0.0743818 0)
(1.02334 -0.0772545 0)
(1.02208 -0.0800396 0)
(1.02063 -0.0827221 0)
(1.01898 -0.0852873 0)
(1.01714 -0.0877212 0)
(1.01513 -0.0900105 0)
(1.01295 -0.0921433 0)
(1.01061 -0.0941089 0)
(1.00813 -0.0958983 0)
(1.00553 -0.0975044 0)
(1.00282 -0.0989219 0)
(1.00002 -0.100148 0)
(0.997151 -0.10118 0)
(0.994228 -0.102021 0)
(0.991271 -0.102673 0)
(0.988298 -0.10314 0)
(0.985325 -0.103429 0)
(0.98237 -0.103546 0)
(0.979447 -0.103501 0)
(0.97657 -0.103301 0)
(0.973751 -0.102958 0)
(0.971 -0.102484 0)
(0.968328 -0.101895 0)
(0.965744 -0.101204 0)
(0.963255 -0.100426 0)
(0.960863 -0.0995723 0)
(0.958561 -0.0986525 0)
(0.956345 -0.0976756 0)
(0.954213 -0.0966512 0)
(0.952167 -0.095589 0)
(0.950215 -0.0944984 0)
(0.948361 -0.093388 0)
(0.946606 -0.0922653 0)
(0.944949 -0.0911371 0)
(0.943386 -0.0900094 0)
(0.941913 -0.0888877 0)
(0.940525 -0.0877769 0)
(0.93922 -0.0866815 0)
(0.937993 -0.0856051 0)
(0.93684 -0.0845513 0)
(0.935758 -0.0835231 0)
(1.0149 -0.00108662 0)
(1.01506 -0.00363293 0)
(1.01535 -0.00582975 0)
(1.01576 -0.00820394 0)
(1.01629 -0.0104852 0)
(1.01691 -0.0128161 0)
(1.01762 -0.0151732 0)
(1.0184 -0.017572 0)
(1.01924 -0.0200231 0)
(1.02013 -0.0225328 0)
(1.02106 -0.0251068 0)
(1.02201 -0.0277489 0)