/*--------------------------------*- C++ -*----------------------------------*\
  =========                 |
  \\      /  F ield         | OpenFOAM: The Open Source CFD Toolbox
   \\    /   O peration     | Website:  https://openfoam.org
    \\  /    A nd           | Version:  10
     \\/     M anipulation  |
\*---------------------------------------------------------------------------*/
FoamFile
{
    format      ascii;
    class       volVectorField;
    location    "500";
    object      U;
}
// * * * * * * * * * * * * * * * * * * * * * * * * * * * * * * * * * * * * * //

dimensions      [0 1 -1 0 0 0 0];

internalField   nonuniform List<vector> 
66268
(
(0.999999 -3.1216e-05 0)
(0.999999 -0.000114303 0)
(1 -0.00018271 0)
(1 -0.00025563 0)
(1 -0.000328236 0)
(1 -0.000401148 0)
(1 -0.000475009 0)
(1 -0.000549952 0)
(1 -0.000625942 0)
(1 -0.000702873 0)
(1 -0.000780539 0)
(1 -0.000858644 0)
(1 -0.000936819 0)
(1 -0.00101464 0)
(1 -0.00109162 0)
(1 -0.00116727 0)
(1 -0.00124106 0)
(1 -0.00131249 0)
(1 -0.00138104 0)
(1 -0.00144624 0)
(1 -0.00150766 0)
(1 -0.0015649 0)
(1 -0.00161764 0)
(1 -0.00166559 0)
(1 -0.00170856 0)
(1 -0.0017464 0)
(1 -0.00177903 0)
(1 -0.00180644 0)
(1 -0.00182866 0)
(1 -0.0018458 0)
(1 -0.001858 0)
(1 -0.00186546 0)
(1 -0.00186841 0)
(1 -0.00186714 0)
(1 -0.00186195 0)
(1 -0.00185317 0)
(1 -0.00184114 0)
(1 -0.00182618 0)
(1 -0.00180861 0)
(1 -0.0017887 0)
(1 -0.0017667 0)
(1 -0.0017428 0)
(1 -0.00171716 0)
(1 -0.00168994 0)
(1 -0.00166126 0)
(0.999998 -0.00163128 0)
(0.999995 -0.00160016 0)
(0.99999 -0.00156809 0)
(0.999982 -0.00153533 0)
(0.99997 -0.00150217 0)
(0.999954 -0.00146892 0)
(0.999936 -0.0014359 0)
(0.999918 -0.00140335 0)
(0.999903 -0.00137144 0)
(0.999892 -0.00134022 0)
(0.999887 -0.00130968 0)
(0.999888 -0.00127979 0)
(0.999893 -0.00125054 0)
(0.999902 -0.00122197 0)
(0.999912 -0.0011941 0)
(0.999924 -0.00116699 0)
(0.999934 -0.00114071 0)
(0.999944 -0.00111531 0)
(0.999952 -0.00109083 0)
(0.999959 -0.00106728 0)
(0.999965 -0.00104468 0)
(0.99997 -0.00102302 0)
(0.999974 -0.00100233 0)
(0.999977 -0.000982628 0)
(1.00014 -9.76532e-05 0)
(1.00013 -0.000351825 0)
(1.00014 -0.00056018 0)
(1.00014 -0.000784054 0)
(1.00015 -0.00100524 0)
(1.00016 -0.00122625 0)
(1.00017 -0.00144928 0)
(1.00017 -0.00167447 0)
(1.00018 -0.00190172 0)
(1.00019 -0.00213069 0)
(1.0002 -0.00236079 0)
(1.00021 -0.00259115 0)
(1.00022 -0.00282071 0)
(1.00022 -0.00304824 0)
(1.00023 -0.00327239 0)
(1.00023 -0.00349173 0)
(1.00023 -0.00370481 0)
(1.00023 -0.00391016 0)
(1.00023 -0.00410638 0)
(1.00023 -0.00429214 0)
(1.00022 -0.00446624 0)
(1.00021 -0.00462761 0)
(1.0002 -0.00477533 0)
(1.00019 -0.00490869 0)
(1.00018 -0.00502713 0)
(1.00016 -0.00513031 0)
(1.00014 -0.00521806 0)
(1.00012 -0.0052904 0)
(1.0001 -0.00534752 0)
(1.00008 -0.00538976 0)
(1.00005 -0.00541761 0)
(1.00003 -0.00543167 0)
(1 -0.00543264 0)
(0.999978 -0.00542125 0)
(0.999951 -0.00539829 0)
(0.999925 -0.00536456 0)
(0.999898 -0.00532083 0)
(0.999872 -0.0052679 0)
(0.999845 -0.00520662 0)
(0.999819 -0.00513784 0)
(0.999794 -0.00506248 0)
(0.999768 -0.00498153 0)
(0.999743 -0.00489596 0)
(0.999718 -0.00480678 0)
(0.999693 -0.00471492 0)
(0.99967 -0.00462122 0)
(0.999648 -0.0045264 0)
(0.999629 -0.00443102 0)
(0.999614 -0.00433546 0)
(0.999605 -0.00423999 0)
(0.999602 -0.0041447 0)
(0.999602 -0.00404971 0)
(0.999604 -0.00395514 0)
(0.999605 -0.00386125 0)
(0.999601 -0.0037684 0)
(0.99959 -0.00367699 0)
(0.999574 -0.00358738 0)
(0.999553 -0.00349988 0)
(0.99953 -0.00341468 0)
(0.999505 -0.00333188 0)
(0.999481 -0.00325154 0)
(0.999458 -0.00317365 0)
(0.999437 -0.00309823 0)
(0.999419 -0.00302527 0)
(0.999402 -0.00295475 0)
(0.999388 -0.0028867 0)
(0.999375 -0.00282108 0)
(0.999364 -0.00275792 0)
(0.999355 -0.00269729 0)
(1.00043 -0.000166332 0)
(1.00043 -0.000590566 0)
(1.00044 -0.000937859 0)
(1.00045 -0.00131419 0)
(1.00047 -0.00168316 0)
(1.00049 -0.00205095 0)
(1.00051 -0.00242136 0)
(1.00054 -0.00279428 0)
(1.00056 -0.00316958 0)
(1.00058 -0.00354682 0)
(1.00061 -0.00392501 0)
(1.00063 -0.0043028 0)
(1.00065 -0.00467852 0)
(1.00066 -0.00505022 0)
(1.00068 -0.00541579 0)
(1.00068 -0.00577297 0)
(1.00069 -0.00611944 0)
(1.00068 -0.0064529 0)
(1.00068 -0.00677112 0)
(1.00066 -0.00707199 0)
(1.00064 -0.00735359 0)
(1.00061 -0.00761421 0)
(1.00058 -0.0078524 0)
(1.00054 -0.00806701 0)
(1.0005 -0.00825717 0)
(1.00044 -0.00842231 0)
(1.00039 -0.00856217 0)
(1.00033 -0.00867676 0)
(1.00026 -0.00876638 0)
(1.00019 -0.00883157 0)
(1.00012 -0.00887307 0)
(1.00005 -0.00889183 0)
(0.999974 -0.00888895 0)
(0.999897 -0.00886567 0)
(0.99982 -0.00882339 0)
(0.999743 -0.00876358 0)
(0.999666 -0.0086878 0)
(0.99959 -0.00859768 0)
(0.999514 -0.00849484 0)
(0.99944 -0.00838083 0)
(0.999368 -0.00825713 0)
(0.999297 -0.00812503 0)
(0.999228 -0.00798571 0)
(0.999162 -0.00784016 0)
(0.999098 -0.00768929 0)
(0.999036 -0.00753393 0)
(0.998975 -0.00737493 0)
(0.998914 -0.00721315 0)
(0.998853 -0.0070495 0)
(0.998789 -0.00688495 0)
(0.998723 -0.00672049 0)
(0.998655 -0.00655703 0)
(0.99859 -0.00639532 0)
(0.998531 -0.00623588 0)
(0.99848 -0.00607903 0)
(0.998439 -0.00592495 0)
(0.998407 -0.00577378 0)
(0.998384 -0.00562571 0)
(0.998366 -0.00548095 0)
(0.998352 -0.00533975 0)
(0.99834 -0.00520238 0)
(0.998329 -0.00506907 0)
(0.998317 -0.00494001 0)
(0.998306 -0.00481533 0)
(0.998294 -0.00469514 0)
(0.998282 -0.00457948 0)
(0.99827 -0.00446836 0)
(0.998258 -0.0043618 0)
(0.998246 -0.0042598 0)
(1.00083 -0.00023347 0)
(1.00084 -0.000821129 0)
(1.00086 -0.00130409 0)
(1.00089 -0.00182939 0)
(1.00092 -0.00234126 0)
(1.00096 -0.00285163 0)
(1.001 -0.00336519 0)
(1.00104 -0.00388159 0)
(1.00108 -0.00440087 0)
(1.00113 -0.00492251 0)
(1.00117 -0.00544527 0)
(1.00121 -0.00596737 0)
(1.00124 -0.00648664 0)
(1.00127 -0.00700052 0)
(1.00129 -0.00750618 0)
(1.00131 -0.00800062 0)
(1.00131 -0.00848072 0)
(1.0013 -0.00894337 0)
(1.00129 -0.00938551 0)
(1.00126 -0.00980427 0)
(1.00122 -0.010197 0)
(1.00116 -0.0105612 0)
(1.0011 -0.010895 0)
(1.00102 -0.0111965 0)
(1.00093 -0.0114646 0)
(1.00083 -0.0116984 0)
(1.00073 -0.0118973 0)
(1.00061 -0.0120613 0)
(1.00049 -0.0121906 0)
(1.00036 -0.012286 0)
(1.00022 -0.0123483 0)
(1.00008 -0.0123789 0)
(0.999936 -0.0123792 0)
(0.999791 -0.012351 0)
(0.999644 -0.0122959 0)
(0.999497 -0.0122161 0)
(0.999351 -0.0121133 0)
(0.999206 -0.0119896 0)
(0.999064 -0.0118467 0)
(0.998924 -0.0116865 0)
(0.998788 -0.0115109 0)
(0.998656 -0.0113218 0)
(0.998528 -0.011121 0)
(0.998404 -0.0109107 0)
(0.998285 -0.0106926 0)
(0.998171 -0.0104688 0)
(0.998062 -0.0102409 0)
(0.997961 -0.0100106 0)
(0.997869 -0.00977918 0)
(0.997788 -0.00954773 0)
(0.997716 -0.00931705 0)
(0.997654 -0.00908777 0)
(0.997597 -0.00886046 0)
(0.99754 -0.00863576 0)
(0.99748 -0.00841439 0)
(0.997415 -0.00819706 0)
(0.997345 -0.00798441 0)
(0.997272 -0.00777694 0)
(0.997199 -0.00757498 0)
(0.997128 -0.00737873 0)
(0.99706 -0.00718832 0)
(0.996997 -0.00700381 0)
(0.996939 -0.00682524 0)
(0.996886 -0.00665264 0)
(0.996838 -0.00648605 0)
(0.996794 -0.00632546 0)
(0.996754 -0.00617087 0)
(0.996718 -0.00602229 0)
(0.996684 -0.00587977 0)
(1.00132 -0.000296158 0)
(1.00133 -0.0010366 0)
(1.00137 -0.00164971 0)
(1.0014 -0.00231611 0)
(1.00145 -0.00296291 0)
(1.00151 -0.0036092 0)
(1.00157 -0.00425956 0)
(1.00164 -0.00491362 0)
(1.00171 -0.00557182 0)
(1.00178 -0.00623365 0)
(1.00184 -0.00689768 0)
(1.0019 -0.00756188 0)
(1.00196 -0.00822364 0)
(1.002 -0.00887991 0)
(1.00204 -0.00952722 0)
(1.00206 -0.0101619 0)
(1.00207 -0.01078 0)
(1.00206 -0.0113776 0)
(1.00203 -0.011951 0)
(1.00199 -0.0124962 0)
(1.00192 -0.0130099 0)
(1.00184 -0.0134889 0)
(1.00174 -0.0139304 0)
(1.00162 -0.014332 0)
(1.00148 -0.0146919 0)
(1.00133 -0.0150088 0)
(1.00116 -0.0152817 0)
(1.00098 -0.0155103 0)
(1.00079 -0.0156948 0)
(1.00058 -0.0158359 0)
(1.00037 -0.0159344 0)
(1.00015 -0.0159918 0)
(0.999918 -0.0160098 0)
(0.999687 -0.0159904 0)
(0.999454 -0.0159356 0)
(0.999221 -0.0158479 0)
(0.998988 -0.0157298 0)
(0.998757 -0.015584 0)
(0.99853 -0.015413 0)
(0.998306 -0.0152198 0)
(0.998087 -0.0150071 0)
(0.997873 -0.0147775 0)
(0.997666 -0.0145334 0)
(0.997465 -0.0142771 0)
(0.997271 -0.0140106 0)
(0.997083 -0.0137355 0)
(0.996903 -0.0134536 0)
(0.996727 -0.0131663 0)
(0.996556 -0.0128754 0)
(0.996387 -0.0125824 0)
(0.99622 -0.0122888 0)
(0.996055 -0.0119964 0)
(0.995896 -0.0117063 0)
(0.995748 -0.0114197 0)
(0.995614 -0.0111372 0)
(0.995496 -0.0108594 0)
(0.995394 -0.0105866 0)
(0.995304 -0.0103192 0)
(0.995224 -0.0100577 0)
(0.995152 -0.00980247 0)
(0.995084 -0.00955402 0)
(0.995019 -0.00931271 0)
(0.994957 -0.00907885 0)
(0.994898 -0.00885268 0)
(0.994841 -0.00863436 0)
(0.994787 -0.00842396 0)
(0.994735 -0.00822153 0)
(0.994686 -0.0080271 0)
(0.99464 -0.00784067 0)
(1.00186 -0.000353807 0)
(1.00188 -0.00123485 0)
(1.00193 -0.00197024 0)
(1.00198 -0.00276783 0)
(1.00205 -0.00354036 0)
(1.00213 -0.00431465 0)
(1.00222 -0.00509437 0)
(1.00231 -0.00587951 0)
(1.00241 -0.00667104 0)
(1.00251 -0.00746857 0)
(1.0026 -0.00827062 0)
(1.00269 -0.009075 0)
(1.00277 -0.00987884 0)
(1.00284 -0.0106786 0)
(1.00289 -0.0114704 0)
(1.00293 -0.0122499 0)
(1.00295 -0.0130123 0)
(1.00294 -0.0137531 0)
(1.00291 -0.0144675 0)
(1.00285 -0.0151509 0)
(1.00277 -0.0157988 0)
(1.00266 -0.0164073 0)
(1.00252 -0.0169727 0)
(1.00236 -0.0174918 0)
(1.00217 -0.0179619 0)
(1.00196 -0.0183812 0)
(1.00172 -0.018748 0)
(1.00146 -0.0190617 0)
(1.00119 -0.019322 0)
(1.0009 -0.0195291 0)
(1.00059 -0.0196841 0)
(1.00028 -0.0197881 0)
(0.999951 -0.0198431 0)
(0.999619 -0.0198511 0)
(0.999283 -0.0198147 0)
(0.998945 -0.0197366 0)
(0.998607 -0.0196197 0)
(0.998271 -0.0194671 0)
(0.997939 -0.0192818 0)
(0.997611 -0.0190668 0)
(0.99729 -0.0188251 0)
(0.996976 -0.0185595 0)
(0.996671 -0.0182731 0)
(0.996375 -0.0179686 0)
(0.99609 -0.0176492 0)
(0.995815 -0.0173177 0)
(0.995552 -0.0169769 0)
(0.995304 -0.0166294 0)
(0.995071 -0.0162777 0)
(0.994856 -0.0159235 0)
(0.994659 -0.0155685 0)
(0.994479 -0.015214 0)
(0.994312 -0.0148611 0)
(0.99415 -0.0145109 0)
(0.993989 -0.0141647 0)
(0.993826 -0.0138238 0)
(0.993662 -0.0134891 0)
(0.993499 -0.0131617 0)
(0.99334 -0.0128422 0)
(0.993189 -0.0125309 0)
(0.993046 -0.0122283 0)
(0.992913 -0.0119345 0)
(0.99279 -0.0116497 0)
(0.992676 -0.0113741 0)
(0.992571 -0.0111077 0)
(0.992475 -0.0108507 0)
(0.992386 -0.010603 0)
(0.992303 -0.0103648 0)
(0.992227 -0.0101361 0)
(1.00246 -0.000406954 0)
(1.00248 -0.00141606 0)
(1.00254 -0.00226376 0)
(1.00261 -0.0031819 0)
(1.00271 -0.00407056 0)
(1.00282 -0.0049641 0)
(1.00294 -0.00586503 0)
(1.00306 -0.006774 0)
(1.0032 -0.00769261 0)
(1.00333 -0.00862068 0)
(1.00346 -0.00955683 0)
(1.00359 -0.0104989 0)
(1.0037 -0.0114438 0)
(1.0038 -0.0123878 0)
(1.00388 -0.0133264 0)
(1.00393 -0.0142548 0)
(1.00396 -0.0151678 0)
(1.00397 -0.0160598 0)
(1.00394 -0.0169253 0)
(1.00387 -0.0177588 0)
(1.00377 -0.0185549 0)
(1.00364 -0.0193085 0)
(1.00347 -0.020015 0)
(1.00326 -0.0206703 0)
(1.00302 -0.0212708 0)
(1.00274 -0.0218135 0)
(1.00243 -0.0222963 0)
(1.0021 -0.0227176 0)
(1.00174 -0.0230765 0)
(1.00135 -0.023373 0)
(1.00094 -0.0236075 0)
(1.00052 -0.0237812 0)
(1.00008 -0.0238959 0)
(0.999633 -0.0239537 0)
(0.999178 -0.0239572 0)
(0.998718 -0.0239094 0)
(0.998257 -0.0238135 0)
(0.997798 -0.023673 0)
(0.997343 -0.0234915 0)
(0.996894 -0.0232727 0)
(0.996452 -0.0230205 0)
(0.996021 -0.0227388 0)
(0.9956 -0.0224313 0)
(0.995192 -0.0221015 0)
(0.994797 -0.0217525 0)
(0.994416 -0.0213872 0)
(0.994049 -0.0210083 0)
(0.993696 -0.0206181 0)
(0.993354 -0.0202189 0)
(0.993021 -0.0198131 0)
(0.992697 -0.0194031 0)
(0.992381 -0.0189913 0)
(0.992079 -0.0185798 0)
(0.991794 -0.0181705 0)
(0.991532 -0.0177649 0)
(0.991295 -0.0173642 0)
(0.991082 -0.0169692 0)
(0.990889 -0.0165809 0)
(0.990711 -0.0162001 0)
(0.990546 -0.0158276 0)
(0.99039 -0.0154643 0)
(0.990242 -0.0151107 0)
(0.990101 -0.0147674 0)
(0.989967 -0.0144349 0)
(0.98984 -0.0141133 0)
(0.989719 -0.013803 0)
(0.989605 -0.0135039 0)
(0.989498 -0.0132162 0)
(0.989397 -0.01294 0)
(1.0031 -0.000455971 0)
(1.00313 -0.00158044 0)
(1.00321 -0.00252924 0)
(1.0033 -0.0035569 0)
(1.00342 -0.00455161 0)
(1.00356 -0.00555489 0)
(1.00371 -0.00656802 0)
(1.00388 -0.00759261 0)
(1.00406 -0.00863093 0)
(1.00423 -0.00968311 0)
(1.00441 -0.010748 0)
(1.00458 -0.0118237 0)
(1.00473 -0.012907 0)
(1.00487 -0.013994 0)
(1.00498 -0.0150801 0)
(1.00507 -0.0161599 0)
(1.00512 -0.0172276 0)
(1.00514 -0.0182771 0)
(1.00512 -0.0193021 0)
(1.00506 -0.020296 0)
(1.00495 -0.0212525 0)
(1.0048 -0.0221656 0)
(1.0046 -0.0230294 0)
(1.00435 -0.0238388 0)
(1.00406 -0.024589 0)
(1.00372 -0.025276 0)
(1.00334 -0.0258966 0)
(1.00292 -0.0264482 0)
(1.00246 -0.0269293 0)
(1.00197 -0.0273389 0)
(1.00146 -0.027677 0)
(1.00091 -0.0279443 0)
(1.00035 -0.028142 0)
(0.999776 -0.028272 0)
(0.999188 -0.028337 0)
(0.998593 -0.0283399 0)
(0.997995 -0.028284 0)
(0.997396 -0.028173 0)
(0.996802 -0.0280109 0)
(0.996214 -0.0278015 0)
(0.995635 -0.027549 0)
(0.995068 -0.0272574 0)
(0.994514 -0.0269305 0)
(0.993976 -0.0265725 0)
(0.993454 -0.0261874 0)
(0.992951 -0.0257794 0)
(0.992467 -0.0253526 0)
(0.992004 -0.024911 0)
(0.991566 -0.0244584 0)
(0.991154 -0.0239979 0)
(0.99077 -0.0235325 0)
(0.990412 -0.0230642 0)
(0.990076 -0.0225951 0)
(0.989754 -0.0221269 0)
(0.989441 -0.0216614 0)
(0.989132 -0.0212005 0)
(0.988827 -0.0207458 0)
(0.988531 -0.0202988 0)
(0.988246 -0.0198605 0)
(0.987975 -0.019432 0)
(0.987721 -0.0190137 0)
(0.987484 -0.0186064 0)
(0.987264 -0.0182103 0)
(0.987059 -0.017826 0)
(0.986869 -0.0174537 0)
(0.986693 -0.0170936 0)
(0.986528 -0.016746 0)
(0.986376 -0.0164111 0)
(0.986233 -0.0160889 0)
(1.00378 -0.000500791 0)
(1.00382 -0.00172795 0)
(1.00391 -0.00276657 0)
(1.00402 -0.00389265 0)
(1.00417 -0.00498296 0)
(1.00435 -0.00608588 0)
(1.00454 -0.00720153 0)
(1.00476 -0.00833258 0)
(1.00498 -0.00948203 0)
(1.0052 -0.0106505 0)
(1.00543 -0.0118372 0)
(1.00565 -0.0130404 0)
(1.00585 -0.0142573 0)
(1.00604 -0.0154839 0)
(1.00619 -0.0167154 0)
(1.00632 -0.0179463 0)
(1.00641 -0.0191703 0)
(1.00646 -0.0203807 0)
(1.00645 -0.0215705 0)
(1.0064 -0.0227323 0)
(1.00629 -0.0238588 0)
(1.00613 -0.0249429 0)
(1.0059 -0.0259777 0)
(1.00562 -0.0269566 0)
(1.00528 -0.0278738 0)
(1.00488 -0.0287239 0)
(1.00443 -0.0295026 0)
(1.00393 -0.030206 0)
(1.00338 -0.0308315 0)
(1.00279 -0.0313772 0)
(1.00215 -0.0318421 0)
(1.00149 -0.032226 0)
(1.0008 -0.0325297 0)
(1.00008 -0.0327548 0)
(0.999351 -0.0329034 0)
(0.998607 -0.0329786 0)
(0.997856 -0.0329838 0)
(0.997103 -0.0329229 0)
(0.996351 -0.0328001 0)
(0.995606 -0.0326201 0)
(0.99487 -0.0323877 0)
(0.994147 -0.0321079 0)
(0.993439 -0.0317857 0)
(0.992749 -0.0314263 0)
(0.992079 -0.0310341 0)
(0.991431 -0.0306135 0)
(0.990804 -0.0301683 0)
(0.990201 -0.0297019 0)
(0.989618 -0.0292177 0)
(0.989055 -0.0287187 0)
(0.988509 -0.0282082 0)
(0.98798 -0.0276895 0)
(0.987473 -0.027166 0)
(0.986993 -0.0266406 0)
(0.986546 -0.0261161 0)
(0.986136 -0.0255945 0)
(0.985759 -0.0250775 0)
(0.985413 -0.0245668 0)
(0.985091 -0.0240639 0)
(0.984789 -0.0235701 0)
(0.984504 -0.0230867 0)
(0.984233 -0.0226148 0)
(0.983976 -0.0221552 0)
(0.983732 -0.0217088 0)
(0.983502 -0.0212761 0)
(0.983284 -0.0208574 0)
(0.983079 -0.020453 0)
(0.982886 -0.0200632 0)
(0.982705 -0.0196882 0)
(1.00448 -0.000541226 0)
(1.00453 -0.00185894 0)
(1.00464 -0.00297705 0)
(1.00478 -0.00419079 0)
(1.00496 -0.00536634 0)
(1.00517 -0.00655875 0)
(1.00541 -0.00776693 0)
(1.00567 -0.00899475 0)
(1.00594 -0.010246 0)
(1.00622 -0.0115217 0)
(1.0065 -0.0128219 0)
(1.00678 -0.0141451 0)
(1.00704 -0.0154888 0)
(1.00728 -0.0168493 0)
(1.00749 -0.0182218 0)
(1.00767 -0.0196006 0)
(1.0078 -0.0209794 0)
(1.00788 -0.022351 0)
(1.00791 -0.0237077 0)
(1.00788 -0.0250415 0)
(1.00778 -0.0263442 0)
(1.00761 -0.0276076 0)
(1.00738 -0.0288237 0)
(1.00707 -0.0299847 0)
(1.00669 -0.0310833 0)
(1.00624 -0.0321128 0)
(1.00573 -0.0330675 0)
(1.00515 -0.0339423 0)
(1.00451 -0.0347329 0)
(1.00381 -0.0354363 0)
(1.00306 -0.0360505 0)
(1.00227 -0.0365742 0)
(1.00144 -0.0370075 0)
(1.00058 -0.0373511 0)
(0.999696 -0.0376068 0)
(0.998792 -0.0377772 0)
(0.997876 -0.0378653 0)
(0.996954 -0.0378751 0)
(0.996031 -0.0378108 0)
(0.995112 -0.037677 0)
(0.994203 -0.0374786 0)
(0.993308 -0.0372206 0)
(0.992429 -0.0369079 0)
(0.991571 -0.0365457 0)
(0.990737 -0.0361392 0)
(0.989927 -0.0356936 0)
(0.989146 -0.0352145 0)
(0.988395 -0.0347074 0)
(0.987676 -0.0341778 0)
(0.986993 -0.0336306 0)
(0.986349 -0.0330703 0)
(0.985743 -0.0325007 0)
(0.98517 -0.0319247 0)
(0.984625 -0.0313451 0)
(0.984098 -0.0307645 0)
(0.983585 -0.0301853 0)
(0.983087 -0.0296102 0)
(0.982605 -0.0290412 0)
(0.982145 -0.0284804 0)
(0.981709 -0.0279292 0)
(0.981299 -0.0273889 0)
(0.980916 -0.0268605 0)
(0.980559 -0.0263449 0)
(0.980225 -0.0258429 0)
(0.979914 -0.0253552 0)
(0.979624 -0.0248823 0)
(0.979353 -0.0244247 0)
(0.9791 -0.0239827 0)
(0.978863 -0.0235567 0)
(1.0052 -0.000577285 0)
(1.00526 -0.00197442 0)
(1.00538 -0.00316298 0)
(1.00555 -0.00445443 0)
(1.00576 -0.00570539 0)
(1.00602 -0.00697752 0)
(1.0063 -0.00826848 0)
(1.00661 -0.00958334 0)
(1.00694 -0.0109267 0)
(1.00728 -0.0123003 0)
(1.00762 -0.0137046 0)
(1.00796 -0.015139 0)
(1.00828 -0.0166013 0)
(1.00858 -0.0180882 0)
(1.00886 -0.0195952 0)
(1.00909 -0.0211167 0)
(1.00928 -0.0226462 0)
(1.00941 -0.0241763 0)
(1.00948 -0.0256991 0)
(1.00948 -0.027206 0)
(1.00941 -0.0286879 0)
(1.00925 -0.0301357 0)
(1.00902 -0.0315404 0)
(1.0087 -0.0328929 0)
(1.00829 -0.0341846 0)
(1.0078 -0.0354074 0)
(1.00723 -0.036554 0)
(1.00658 -0.0376177 0)
(1.00585 -0.0385928 0)
(1.00506 -0.039475 0)
(1.0042 -0.0402605 0)
(1.00328 -0.0409471 0)
(1.00231 -0.0415335 0)
(1.0013 -0.0420195 0)
(1.00025 -0.042406 0)
(0.999182 -0.0426949 0)
(0.99809 -0.0428889 0)
(0.996987 -0.0429916 0)
(0.995878 -0.0430074 0)
(0.99477 -0.0429411 0)
(0.99367 -0.0427982 0)
(0.992582 -0.0425844 0)
(0.991511 -0.0423061 0)
(0.990462 -0.0419694 0)
(0.989439 -0.0415808 0)
(0.988443 -0.041146 0)
(0.987478 -0.0406706 0)
(0.986546 -0.0401595 0)
(0.985645 -0.0396171 0)
(0.984775 -0.0390477 0)
(0.983934 -0.0384555 0)
(0.983122 -0.0378448 0)
(0.982341 -0.0372203 0)
(0.981598 -0.0365866 0)
(0.9809 -0.0359478 0)
(0.98025 -0.0353074 0)
(0.979649 -0.0346682 0)
(0.97909 -0.0340329 0)
(0.978567 -0.0334038 0)
(0.978075 -0.0327829 0)
(0.97761 -0.0321724 0)
(0.977169 -0.0315738 0)
(0.976751 -0.0309887 0)
(0.976356 -0.0304184 0)
(0.975982 -0.0298636 0)
(0.97563 -0.0293253 0)
(0.975299 -0.0288041 0)
(0.974987 -0.0283004 0)
(0.974695 -0.0278147 0)
(1.00591 -0.000609287 0)
(1.00599 -0.00207594 0)
(1.00613 -0.00332708 0)
(1.00632 -0.00468717 0)
(1.00657 -0.00600456 0)
(1.00687 -0.00734731 0)
(1.0072 -0.00871178 0)
(1.00756 -0.0101042 0)
(1.00795 -0.0115301 0)
(1.00835 -0.0129919 0)
(1.00876 -0.0144908 0)
(1.00916 -0.0160269 0)
(1.00956 -0.0175987 0)
(1.00993 -0.0192033 0)
(1.01028 -0.0208367 0)
(1.01058 -0.0224936 0)
(1.01083 -0.0241677 0)
(1.01102 -0.0258517 0)
(1.01115 -0.0275373 0)
(1.01119 -0.0292155 0)
(1.01116 -0.0308769 0)
(1.01103 -0.0325116 0)
(1.01081 -0.0341094 0)
(1.01049 -0.0356603 0)
(1.01007 -0.0371543 0)
(1.00956 -0.0385819 0)
(1.00894 -0.0399342 0)
(1.00823 -0.0412029 0)
(1.00743 -0.0423808 0)
(1.00654 -0.0434615 0)
(1.00557 -0.04444 0)
(1.00453 -0.0453122 0)
(1.00342 -0.0460755 0)
(1.00226 -0.0467284 0)
(1.00105 -0.0472706 0)
(0.999805 -0.0477032 0)
(0.998529 -0.0480282 0)
(0.997233 -0.0482485 0)
(0.995926 -0.0483682 0)
(0.994615 -0.0483917 0)
(0.993308 -0.0483243 0)
(0.992011 -0.0481716 0)
(0.990732 -0.0479393 0)
(0.989476 -0.0476334 0)
(0.988248 -0.0472602 0)
(0.987051 -0.046826 0)
(0.98589 -0.0463377 0)
(0.984767 -0.0458022 0)
(0.983686 -0.0452268 0)
(0.982651 -0.0446187 0)
(0.981665 -0.0439845 0)
(0.980731 -0.0433299 0)
(0.979845 -0.0426596 0)
(0.979001 -0.0419776 0)
(0.97819 -0.0412875 0)
(0.977407 -0.0405929 0)
(0.97665 -0.0398973 0)
(0.975922 -0.039204 0)
(0.975228 -0.038516 0)
(0.97457 -0.0378358 0)
(0.973951 -0.0371654 0)
(0.97337 -0.0365067 0)
(0.972827 -0.0358612 0)
(0.972318 -0.0352302 0)
(0.971842 -0.0346151 0)
(0.971397 -0.0340168 0)
(0.97098 -0.0334361 0)
(0.97059 -0.0328738 0)
(0.970224 -0.0323305 0)
(1.00663 -0.000637734 0)
(1.00671 -0.00216521 0)
(1.00687 -0.00347182 0)
(1.00709 -0.00489237 0)
(1.00738 -0.00626802 0)
(1.00771 -0.00767299 0)
(1.0081 -0.00910225 0)
(1.00851 -0.0105633 0)
(1.00896 -0.0120623 0)
(1.00943 -0.0136026 0)
(1.00991 -0.0151864 0)
(1.01039 -0.0168144 0)
(1.01086 -0.0184859 0)
(1.01131 -0.0201986 0)
(1.01173 -0.0219493 0)
(1.01212 -0.0237331 0)
(1.01244 -0.0255441 0)
(1.01271 -0.0273752 0)
(1.0129 -0.0292182 0)
(1.013 -0.031064 0)
(1.01302 -0.0329028 0)
(1.01293 -0.0347242 0)
(1.01274 -0.0365172 0)
(1.01244 -0.0382708 0)
(1.01203 -0.0399739 0)
(1.0115 -0.0416156 0)
(1.01085 -0.0431854 0)
(1.01009 -0.0446734 0)
(1.00923 -0.0460705 0)
(1.00826 -0.0473687 0)
(1.00719 -0.0485609 0)
(1.00603 -0.0496413 0)
(1.00479 -0.0506056 0)
(1.00348 -0.0514507 0)
(1.00211 -0.0521748 0)
(1.00068 -0.0527775 0)
(0.99922 -0.0532598 0)
(0.997724 -0.0536237 0)
(0.996208 -0.0538726 0)
(0.994681 -0.0540105 0)
(0.993153 -0.0540428 0)
(0.991631 -0.0539753 0)
(0.990124 -0.053815 0)
(0.988638 -0.0535689 0)
(0.98718 -0.0532448 0)
(0.985754 -0.0528504 0)
(0.984366 -0.052393 0)
(0.983018 -0.0518794 0)
(0.981713 -0.0513156 0)
(0.980452 -0.0507073 0)
(0.979232 -0.0500599 0)
(0.978055 -0.049379 0)
(0.976921 -0.0486705 0)
(0.975836 -0.0479409 0)
(0.974809 -0.0471962 0)
(0.973846 -0.0464417 0)
(0.972945 -0.0456819 0)
(0.972104 -0.0449208 0)
(0.971313 -0.0441617 0)
(0.970568 -0.0434078 0)
(0.969863 -0.0426622 0)
(0.969195 -0.0419275 0)
(0.968562 -0.041206 0)
(0.967964 -0.0404996 0)
(0.9674 -0.03981 0)
(0.966868 -0.0391385 0)
(0.966367 -0.0384862 0)
(0.965897 -0.0378541 0)
(0.965455 -0.037243 0)
(1.00733 -0.000663088 0)
(1.00743 -0.00224363 0)
(1.00761 -0.00359905 0)
(1.00786 -0.00507254 0)
(1.00818 -0.00649898 0)
(1.00855 -0.00795832 0)
(1.00898 -0.0094441 0)
(1.00946 -0.010965 0)
(1.00997 -0.0125281 0)
(1.0105 -0.0141375 0)
(1.01106 -0.0157964 0)
(1.01162 -0.0175062 0)
(1.01217 -0.0192671 0)
(1.0127 -0.0210778 0)
(1.01321 -0.0229358 0)
(1.01368 -0.0248368 0)
(1.01409 -0.0267756 0)
(1.01444 -0.0287456 0)
(1.01471 -0.0307387 0)
(1.01489 -0.0327462 0)
(1.01497 -0.0347581 0)
(1.01494 -0.0367636 0)
(1.01479 -0.0387514 0)
(1.01453 -0.0407095 0)
(1.01413 -0.0426259 0)
(1.01361 -0.0444885 0)
(1.01295 -0.0462852 0)
(1.01216 -0.0480047 0)
(1.01125 -0.0496359 0)
(1.01021 -0.0511689 0)
(1.00906 -0.0525947 0)
(1.00779 -0.0539054 0)
(1.00643 -0.0550947 0)
(1.00498 -0.0561575 0)
(1.00344 -0.0570902 0)
(1.00184 -0.0578907 0)
(1.00019 -0.0585586 0)
(0.998488 -0.0590947 0)
(0.996756 -0.0595013 0)
(0.995003 -0.0597819 0)
(0.99324 -0.0599411 0)
(0.991479 -0.0599843 0)
(0.989728 -0.0599177 0)
(0.987996 -0.0597476 0)
(0.986292 -0.059481 0)
(0.984622 -0.0591251 0)
(0.982993 -0.0586876 0)
(0.981409 -0.0581768 0)
(0.979876 -0.0576016 0)
(0.978399 -0.0569714 0)
(0.976982 -0.0562951 0)
(0.975629 -0.0555813 0)
(0.97434 -0.0548369 0)
(0.973112 -0.054068 0)
(0.971936 -0.0532795 0)
(0.970804 -0.0524763 0)
(0.969713 -0.0516633 0)
(0.968666 -0.0508454 0)
(0.967666 -0.050027 0)
(0.966719 -0.0492119 0)
(0.965826 -0.0484035 0)
(0.964985 -0.0476046 0)
(0.964197 -0.0468177 0)
(0.963457 -0.0460451 0)
(0.962763 -0.0452888 0)
(0.962113 -0.0445503 0)
(0.961503 -0.0438313 0)
(0.960931 -0.0431329 0)
(0.960395 -0.0424563 0)
(1.00803 -0.000685605 0)
(1.00813 -0.00231204 0)
(1.00833 -0.00370997 0)
(1.0086 -0.00522939 0)
(1.00896 -0.00669955 0)
(1.00938 -0.00820579 0)
(1.00986 -0.00974017 0)
(1.01039 -0.0113126 0)
(1.01096 -0.0129308 0)
(1.01157 -0.0146 0)
(1.0122 -0.016324 0)
(1.01284 -0.0181055 0)
(1.01348 -0.0199453 0)
(1.0141 -0.0218434 0)
(1.0147 -0.0237979 0)
(1.01526 -0.0258056 0)
(1.01576 -0.027862 0)
(1.0162 -0.0299611 0)
(1.01656 -0.0320956 0)
(1.01683 -0.034257 0)
(1.01699 -0.0364355 0)
(1.01703 -0.0386204 0)
(1.01695 -0.0407999 0)
(1.01674 -0.0429618 0)
(1.01638 -0.0450932 0)
(1.01588 -0.0471808 0)
(1.01523 -0.0492115 0)
(1.01443 -0.0511721 0)
(1.01349 -0.0530501 0)
(1.0124 -0.0548335 0)
(1.01118 -0.0565113 0)
(1.00982 -0.0580733 0)
(1.00835 -0.059511 0)
(1.00676 -0.0608171 0)
(1.00507 -0.0619859 0)
(1.0033 -0.0630133 0)
(1.00146 -0.0638969 0)
(0.999551 -0.0646359 0)
(0.997598 -0.0652311 0)
(0.995612 -0.0656847 0)
(0.993606 -0.0660003 0)
(0.991592 -0.066183 0)
(0.989581 -0.0662388 0)
(0.987584 -0.0661751 0)
(0.985611 -0.0660001 0)
(0.98367 -0.0657227 0)
(0.981769 -0.065352 0)
(0.979915 -0.064897 0)
(0.978111 -0.0643657 0)
(0.976363 -0.0637656 0)
(0.97467 -0.0631037 0)
(0.973034 -0.0623869 0)
(0.971454 -0.0616227 0)
(0.969938 -0.0608192 0)
(0.968492 -0.0599849 0)
(0.967125 -0.0591275 0)
(0.96584 -0.0582538 0)
(0.964633 -0.0573694 0)
(0.963496 -0.0564793 0)
(0.962422 -0.0555883 0)
(0.961406 -0.0547008 0)
(0.960443 -0.0538206 0)
(0.959532 -0.0529513 0)
(0.95867 -0.0520959 0)
(0.957857 -0.0512571 0)
(0.957091 -0.050437 0)
(0.95637 -0.0496374 0)
(0.955693 -0.04886 0)
(0.955057 -0.0481061 0)
(1.0087 -0.000705376 0)
(1.00882 -0.00237091 0)
(1.00904 -0.0038054 0)
(1.00934 -0.00536407 0)
(1.00973 -0.00687123 0)
(1.01019 -0.00841719 0)
(1.01072 -0.00999256 0)
(1.01131 -0.0116083 0)
(1.01194 -0.0132731 0)
(1.01262 -0.0149927 0)
(1.01332 -0.0167722 0)
(1.01404 -0.018615 0)
(1.01477 -0.0205233 0)
(1.01549 -0.0224976 0)
(1.01618 -0.0245375 0)
(1.01684 -0.0266406 0)
(1.01745 -0.0288035 0)
(1.01799 -0.031021 0)
(1.01845 -0.0332866 0)
(1.01881 -0.0355925 0)
(1.01906 -0.0379293 0)
(1.01919 -0.0402865 0)
(1.01919 -0.0426526 0)
(1.01905 -0.0450149 0)
(1.01875 -0.0473601 0)
(1.01829 -0.0496742 0)
(1.01767 -0.051943 0)
(1.01688 -0.054152 0)
(1.01593 -0.056287 0)
(1.01481 -0.0583342 0)
(1.01354 -0.0602804 0)
(1.01211 -0.0621133 0)
(1.01054 -0.0638219 0)
(1.00884 -0.0653965 0)
(1.00701 -0.066829 0)
(1.00508 -0.0681129 0)
(1.00305 -0.0692433 0)
(1.00094 -0.0702175 0)
(0.998765 -0.0710342 0)
(0.996542 -0.0716942 0)
(0.994284 -0.0721998 0)
(0.992006 -0.072555 0)
(0.989722 -0.0727648 0)
(0.987445 -0.0728355 0)
(0.985187 -0.0727742 0)
(0.982959 -0.0725883 0)
(0.980772 -0.0722861 0)
(0.978633 -0.0718766 0)
(0.976551 -0.0713697 0)
(0.974531 -0.0707766 0)
(0.972582 -0.0701088 0)
(0.97071 -0.0693777 0)
(0.968918 -0.0685936 0)
(0.967206 -0.0677652 0)
(0.965567 -0.0668996 0)
(0.963993 -0.0660034 0)
(0.962478 -0.0650833 0)
(0.961024 -0.0641461 0)
(0.959636 -0.0631982 0)
(0.958317 -0.0622456 0)
(0.95707 -0.061293 0)
(0.955896 -0.0603451 0)
(0.954791 -0.0594056 0)
(0.953753 -0.058478 0)
(0.952777 -0.0575655 0)
(0.951862 -0.0566706 0)
(0.951002 -0.0557958 0)
(0.950196 -0.0549432 0)
(0.94944 -0.0541145 0)
(1.00936 -0.000722466 0)
(1.00949 -0.00242065 0)
(1.00972 -0.00388609 0)
(1.01005 -0.00547768 0)
(1.01047 -0.00701542 0)
(1.01098 -0.00859425 0)
(1.01155 -0.0102033 0)
(1.0122 -0.0118546 0)
(1.0129 -0.0135575 0)
(1.01364 -0.0153188 0)
(1.01442 -0.0171442 0)
(1.01523 -0.0190383 0)
(1.01604 -0.0210042 0)
(1.01685 -0.0230439 0)
(1.01765 -0.0251577 0)
(1.01841 -0.0273446 0)
(1.01912 -0.0296022 0)
(1.01977 -0.0319264 0)
(1.02034 -0.0343118 0)
(1.02081 -0.0367514 0)
(1.02117 -0.0392365 0)
(1.0214 -0.0417572 0)
(1.0215 -0.0443023 0)
(1.02144 -0.0468594 0)
(1.02122 -0.0494147 0)
(1.02082 -0.0519541 0)
(1.02025 -0.0544623 0)
(1.0195 -0.056924 0)
(1.01856 -0.0593233 0)
(1.01744 -0.061645 0)
(1.01613 -0.0638736 0)
(1.01466 -0.0659949 0)
(1.01301 -0.0679953 0)
(1.01121 -0.0698625 0)
(1.00926 -0.0715856 0)
(1.00718 -0.0731555 0)
(1.00497 -0.0745648 0)
(1.00267 -0.0758079 0)
(1.00028 -0.0768814 0)
(0.99782 -0.0777838 0)
(0.995308 -0.0785156 0)
(0.99276 -0.0790789 0)
(0.990193 -0.0794779 0)
(0.987621 -0.0797181 0)
(0.98506 -0.079807 0)
(0.982522 -0.0797535 0)
(0.98002 -0.0795674 0)
(0.977563 -0.0792594 0)
(0.97516 -0.0788399 0)
(0.97282 -0.0783184 0)
(0.970548 -0.077704 0)
(0.968345 -0.0770051 0)
(0.966214 -0.0762306 0)
(0.964159 -0.0753906 0)
(0.96219 -0.0744961 0)
(0.960315 -0.0735577 0)
(0.958543 -0.0725854 0)
(0.956872 -0.0715873 0)
(0.955294 -0.0705707 0)
(0.953802 -0.0695422 0)
(0.952389 -0.0685083 0)
(0.95105 -0.0674746 0)
(0.949783 -0.0664465 0)
(0.948584 -0.0654286 0)
(0.947453 -0.0644249 0)
(0.946388 -0.0634388 0)
(0.945385 -0.0624733 0)
(0.944442 -0.061531 0)
(0.943557 -0.0606141 0)
(1.01 -0.000737013 0)
(1.01013 -0.00246183 0)
(1.01039 -0.00395294 0)
(1.01074 -0.00557154 0)
(1.01119 -0.00713385 0)
(1.01174 -0.00873913 0)
(1.01236 -0.0103751 0)
(1.01306 -0.0120546 0)
(1.01382 -0.0137877 0)
(1.01464 -0.015582 0)
(1.01549 -0.0174442 0)
(1.01638 -0.0193799 0)
(1.01728 -0.0213932 0)
(1.01819 -0.0234873 0)
(1.01909 -0.0256636 0)
(1.01996 -0.0279226 0)
(1.02078 -0.0302629 0)
(1.02154 -0.0326817 0)
(1.02223 -0.0351748 0)
(1.02282 -0.0377363 0)
(1.0233 -0.0403584 0)
(1.02364 -0.0430322 0)
(1.02385 -0.0457471 0)
(1.02389 -0.0484909 0)
(1.02376 -0.0512503 0)
(1.02346 -0.0540109 0)
(1.02296 -0.056757 0)
(1.02226 -0.0594725 0)
(1.02136 -0.0621406 0)
(1.02026 -0.0647443 0)
(1.01895 -0.0672667 0)
(1.01745 -0.0696912 0)
(1.01575 -0.0720019 0)
(1.01387 -0.0741839 0)
(1.01182 -0.0762234 0)
(1.00961 -0.0781084 0)
(1.00725 -0.0798285 0)
(1.00476 -0.0813751 0)
(1.00217 -0.082742 0)
(0.999474 -0.0839248 0)
(0.996708 -0.0849218 0)
(0.993887 -0.0857329 0)
(0.991029 -0.0863604 0)
(0.988153 -0.0868086 0)
(0.985274 -0.0870831 0)
(0.982411 -0.0871909 0)
(0.979577 -0.0871398 0)
(0.976786 -0.0869388 0)
(0.974052 -0.0865982 0)
(0.971383 -0.0861298 0)
(0.968792 -0.0855472 0)
(0.966286 -0.0848644 0)
(0.963874 -0.0840956 0)
(0.961562 -0.0832531 0)
(0.959345 -0.0823471 0)
(0.957218 -0.0813867 0)
(0.955172 -0.0803807 0)
(0.953206 -0.0793383 0)
(0.951325 -0.0782687 0)
(0.949535 -0.0771804 0)
(0.94784 -0.0760809 0)
(0.94624 -0.0749767 0)
(0.944732 -0.0738737 0)
(0.943314 -0.0727772 0)
(0.94198 -0.0716918 0)
(0.940726 -0.0706218 0)
(0.939549 -0.0695708 0)
(0.938444 -0.0685421 0)
(0.937408 -0.0675387 0)
(1.01061 -0.000749224 0)
(1.01076 -0.00249517 0)
(1.01103 -0.00400711 0)
(1.0114 -0.0056473 0)
(1.01189 -0.00722869 0)
(1.01247 -0.00885454 0)
(1.01314 -0.0105111 0)
(1.01389 -0.012212 0)
(1.01471 -0.0139679 0)
(1.01559 -0.0157874 0)
(1.01653 -0.0176779 0)
(1.01749 -0.019646 0)