/*--------------------------------*- C++ -*----------------------------------*\
  =========                 |
  \\      /  F ield         | OpenFOAM: The Open Source CFD Toolbox
   \\    /   O peration     | Website:  https://openfoam.org
    \\  /    A nd           | Version:  10
     \\/     M anipulation  |
\*---------------------------------------------------------------------------*/
FoamFile
{
    format      ascii;
    class       volVectorField;
    location    "530";
    object      U;
}
// * * * * * * * * * * * * * * * * * * * * * * * * * * * * * * * * * * * * * //

dimensions      [0 1 -1 0 0 0 0];

internalField   nonuniform List<vector> 
66268
(
(1 -3.76552e-05 0)
(1 -0.000138236 0)
(1 -0.000221156 0)
(1 -0.000309025 0)
(1 -0.000396221 0)
(1 -0.000483506 0)
(1 -0.000571599 0)
(1 -0.000660659 0)
(1 -0.000750673 0)
(1 -0.000841549 0)
(1 -0.000933089 0)
(1 -0.001025 0)
(1 -0.00111691 0)
(1 -0.00120838 0)
(0.999999 -0.00129894 0)
(0.999999 -0.00138807 0)
(0.999999 -0.00147524 0)
(0.999999 -0.00155991 0)
(0.999999 -0.00164158 0)
(0.999999 -0.00171974 0)
(0.999999 -0.00179395 0)
(0.999998 -0.0018638 0)
(0.999998 -0.00192894 0)
(0.999998 -0.00198907 0)
(0.999998 -0.00204398 0)
(0.999998 -0.0020935 0)
(0.999998 -0.00213754 0)
(0.999998 -0.00217609 0)
(0.999998 -0.00220916 0)
(0.999998 -0.00223685 0)
(0.999998 -0.0022593 0)
(0.999998 -0.00227671 0)
(0.999998 -0.00228929 0)
(0.999998 -0.0022973 0)
(0.999998 -0.00230104 0)
(0.999998 -0.00230079 0)
(0.999998 -0.00229687 0)
(0.999998 -0.00228959 0)
(0.999999 -0.00227922 0)
(0.999999 -0.00226603 0)
(1 -0.00225024 0)
(1 -0.00223204 0)
(1 -0.0022116 0)
(1 -0.00218908 0)
(1 -0.00216467 0)
(1 -0.0021386 0)
(0.999998 -0.00211119 0)
(0.999991 -0.00208288 0)
(0.999978 -0.0020542 0)
(0.999958 -0.00202575 0)
(0.999934 -0.00199807 0)
(0.999908 -0.00197146 0)
(0.999883 -0.00194596 0)
(0.999865 -0.00192134 0)
(0.999854 -0.00189723 0)
(0.999852 -0.00187328 0)
(0.999857 -0.00184922 0)
(0.999867 -0.00182498 0)
(0.999881 -0.00180058 0)
(0.999895 -0.00177617 0)
(0.999909 -0.00175192 0)
(0.999922 -0.00172801 0)
(0.999933 -0.00170459 0)
(0.999943 -0.00168178 0)
(0.999951 -0.00165969 0)
(0.999958 -0.00163837 0)
(0.999963 -0.00161785 0)
(0.999967 -0.0015982 0)
(0.999971 -0.00157943 0)
(1.00016 -0.000111651 0)
(1.00016 -0.000403542 0)
(1.00017 -0.00064387 0)
(1.00017 -0.000901502 0)
(1.00018 -0.00115647 0)
(1.00019 -0.001412 0)
(1.0002 -0.00167048 0)
(1.00021 -0.00193227 0)
(1.00022 -0.00219738 0)
(1.00023 -0.0024656 0)
(1.00024 -0.00273636 0)
(1.00025 -0.00300884 0)
(1.00026 -0.00328195 0)
(1.00026 -0.00355442 0)
(1.00027 -0.00382484 0)
(1.00028 -0.00409168 0)
(1.00028 -0.00435338 0)
(1.00028 -0.00460832 0)
(1.00028 -0.00485495 0)
(1.00028 -0.00509177 0)
(1.00028 -0.0053174 0)
(1.00027 -0.00553058 0)
(1.00026 -0.00573021 0)
(1.00025 -0.00591538 0)
(1.00024 -0.00608536 0)
(1.00022 -0.00623962 0)
(1.0002 -0.00637781 0)
(1.00018 -0.00649978 0)
(1.00016 -0.00660556 0)
(1.00014 -0.00669534 0)
(1.00012 -0.00676944 0)
(1.00009 -0.00682835 0)
(1.00007 -0.00687264 0)
(1.00004 -0.00690296 0)
(1.00002 -0.00692003 0)
(0.999991 -0.00692464 0)
(0.999964 -0.00691757 0)
(0.999936 -0.00689965 0)
(0.999909 -0.00687175 0)
(0.999882 -0.00683478 0)
(0.999854 -0.00678971 0)
(0.999826 -0.00673758 0)
(0.999798 -0.00667944 0)
(0.99977 -0.00661632 0)
(0.999743 -0.00654918 0)
(0.999719 -0.00647884 0)
(0.999698 -0.00640597 0)
(0.999685 -0.00633097 0)
(0.999681 -0.00625404 0)
(0.999688 -0.0061752 0)
(0.999703 -0.00609449 0)
(0.999723 -0.00601214 0)
(0.999739 -0.00592868 0)
(0.999747 -0.00584492 0)
(0.999742 -0.00576175 0)
(0.999725 -0.00567997 0)
(0.999698 -0.00560013 0)
(0.999664 -0.00552254 0)
(0.999627 -0.00544727 0)
(0.999591 -0.00537428 0)
(0.999557 -0.00530347 0)
(0.999526 -0.00523472 0)
(0.9995 -0.00516797 0)
(0.999476 -0.00510316 0)
(0.999456 -0.00504027 0)
(0.999439 -0.0049793 0)
(0.999424 -0.00492027 0)
(0.999411 -0.0048632 0)
(0.9994 -0.0048082 0)
(1.00049 -0.000182015 0)
(1.00049 -0.0006488 0)
(1.0005 -0.00103295 0)
(1.00052 -0.00144926 0)
(1.00054 -0.00185965 0)
(1.00056 -0.00227131 0)
(1.00059 -0.0026885 0)
(1.00062 -0.00311159 0)
(1.00065 -0.00354068 0)
(1.00068 -0.00397555 0)
(1.00071 -0.00441538 0)
(1.00074 -0.00485886 0)
(1.00077 -0.00530432 0)
(1.00079 -0.00574975 0)
(1.00082 -0.00619288 0)
(1.00083 -0.00663128 0)
(1.00085 -0.00706236 0)
(1.00085 -0.00748352 0)
(1.00085 -0.00789219 0)
(1.00085 -0.00828587 0)
(1.00084 -0.00866223 0)
(1.00082 -0.00901913 0)
(1.00079 -0.00935469 0)
(1.00076 -0.0096673 0)
(1.00072 -0.00995565 0)
(1.00068 -0.0102187 0)
(1.00063 -0.0104559 0)
(1.00057 -0.0106667 0)
(1.00051 -0.0108512 0)
(1.00045 -0.0110095 0)
(1.00038 -0.0111422 0)
(1.00031 -0.01125 0)
(1.00023 -0.0113337 0)
(1.00016 -0.0113946 0)
(1.00008 -0.0114338 0)
(1 -0.0114528 0)
(0.999924 -0.011453 0)
(0.999846 -0.0114361 0)
(0.999768 -0.0114035 0)
(0.999692 -0.0113569 0)
(0.999616 -0.0112975 0)
(0.999543 -0.0112268 0)
(0.999471 -0.0111459 0)
(0.999402 -0.0110558 0)
(0.999334 -0.0109574 0)
(0.999268 -0.0108517 0)
(0.999201 -0.0107397 0)
(0.99913 -0.0106222 0)
(0.999055 -0.0105003 0)
(0.998973 -0.0103752 0)
(0.998886 -0.010248 0)
(0.998801 -0.0101194 0)
(0.998722 -0.0099901 0)
(0.998657 -0.0098606 0)
(0.998607 -0.00973112 0)
(0.998573 -0.00960195 0)
(0.998551 -0.00947349 0)
(0.998537 -0.00934621 0)
(0.998528 -0.00922064 0)
(0.998519 -0.00909731 0)
(0.99851 -0.00897665 0)
(0.998499 -0.00885904 0)
(0.998487 -0.00874477 0)
(0.998473 -0.00863402 0)
(0.998458 -0.00852693 0)
(0.998443 -0.00842359 0)
(0.998427 -0.00832403 0)
(0.998411 -0.00822831 0)
(0.998395 -0.00813645 0)
(1.00092 -0.000248189 0)
(1.00093 -0.000876352 0)
(1.00096 -0.00139513 0)
(1.00099 -0.00196053 0)
(1.00103 -0.00251552 0)
(1.00108 -0.00307306 0)
(1.00113 -0.00363878 0)
(1.00118 -0.00421287 0)
(1.00124 -0.00479579 0)
(1.0013 -0.00538739 0)
(1.00136 -0.00598664 0)
(1.00142 -0.00659191 0)
(1.00147 -0.00720105 0)
(1.00152 -0.00781141 0)
(1.00156 -0.00842001 0)
(1.00159 -0.00902356 0)
(1.00162 -0.00961859 0)
(1.00163 -0.0102015 0)
(1.00164 -0.0107689 0)
(1.00163 -0.0113171 0)
(1.00161 -0.0118429 0)
(1.00157 -0.0123434 0)
(1.00153 -0.0128156 0)
(1.00147 -0.0132574 0)
(1.0014 -0.0136666 0)
(1.00131 -0.0140417 0)
(1.00122 -0.0143817 0)
(1.00112 -0.0146857 0)
(1.001 -0.0149536 0)
(1.00088 -0.0151855 0)
(1.00075 -0.0153818 0)
(1.00062 -0.0155433 0)
(1.00048 -0.0156711 0)
(1.00034 -0.0157665 0)
(1.00019 -0.015831 0)
(1.00005 -0.0158663 0)
(0.999901 -0.015874 0)
(0.999755 -0.0158559 0)
(0.99961 -0.0158139 0)
(0.999467 -0.0157498 0)
(0.999326 -0.0156655 0)
(0.999188 -0.0155629 0)
(0.999053 -0.0154442 0)
(0.998922 -0.0153115 0)
(0.998795 -0.0151668 0)
(0.998674 -0.0150123 0)
(0.99856 -0.0148498 0)
(0.998457 -0.014681 0)
(0.998368 -0.0145075 0)
(0.998293 -0.0143305 0)
(0.99823 -0.0141511 0)
(0.998174 -0.01397 0)
(0.998117 -0.0137884 0)
(0.998052 -0.0136071 0)
(0.997976 -0.013427 0)
(0.997889 -0.0132491 0)
(0.997796 -0.0130738 0)
(0.9977 -0.0129016 0)
(0.997606 -0.0127327 0)
(0.997517 -0.0125674 0)
(0.997435 -0.0124058 0)
(0.99736 -0.0122481 0)
(0.997292 -0.0120945 0)
(0.997231 -0.0119451 0)
(0.997175 -0.0118 0)
(0.997124 -0.0116594 0)
(0.997078 -0.0115235 0)
(0.997035 -0.0113922 0)
(0.996996 -0.0112658 0)
(1.00143 -0.000310592 0)
(1.00145 -0.0010909 0)
(1.00149 -0.0017397 0)
(1.00154 -0.00244694 0)
(1.0016 -0.00313854 0)
(1.00168 -0.00383474 0)
(1.00176 -0.0045414 0)
(1.00184 -0.00525865 0)
(1.00194 -0.00598753 0)
(1.00203 -0.00672802 0)
(1.00213 -0.00747896 0)
(1.00222 -0.00823851 0)
(1.0023 -0.00900417 0)
(1.00238 -0.0097728 0)
(1.00245 -0.0105408 0)
(1.00251 -0.0113041 0)
(1.00255 -0.0120585 0)
(1.00258 -0.0127996 0)
(1.00259 -0.0135229 0)
(1.00258 -0.014224 0)
(1.00255 -0.0148985 0)
(1.0025 -0.0155427 0)
(1.00244 -0.0161528 0)
(1.00235 -0.0167257 0)
(1.00224 -0.0172586 0)
(1.00211 -0.0177493 0)
(1.00197 -0.0181961 0)
(1.00181 -0.0185979 0)
(1.00164 -0.018954 0)
(1.00145 -0.0192644 0)
(1.00125 -0.0195294 0)
(1.00104 -0.0197498 0)
(1.00082 -0.0199268 0)
(1.0006 -0.0200622 0)
(1.00037 -0.0201577 0)
(1.00014 -0.0202155 0)
(0.999902 -0.0202381 0)
(0.999668 -0.020228 0)
(0.999436 -0.020188 0)
(0.999205 -0.0201207 0)
(0.998978 -0.020029 0)
(0.998755 -0.0199154 0)
(0.998536 -0.0197824 0)
(0.998323 -0.0196321 0)
(0.998116 -0.0194665 0)
(0.997914 -0.0192873 0)
(0.997716 -0.0190962 0)
(0.997521 -0.0188944 0)
(0.997324 -0.0186836 0)
(0.997127 -0.018465 0)
(0.996929 -0.0182403 0)
(0.996738 -0.0180111 0)
(0.99656 -0.0177788 0)
(0.996401 -0.0175449 0)
(0.996264 -0.0173107 0)
(0.996147 -0.0170774 0)
(0.996047 -0.0168458 0)
(0.995958 -0.0166171 0)
(0.995877 -0.016392 0)
(0.995799 -0.0161712 0)
(0.995723 -0.0159554 0)
(0.995648 -0.015745 0)
(0.995575 -0.0155404 0)
(0.995503 -0.0153418 0)
(0.995434 -0.0151494 0)
(0.995367 -0.0149634 0)
(0.995303 -0.0147838 0)
(0.995242 -0.0146108 0)
(0.995184 -0.0144444 0)
(1.002 -0.000370107 0)
(1.00203 -0.00129528 0)
(1.00208 -0.00207 0)
(1.00215 -0.00291265 0)
(1.00224 -0.00373425 0)
(1.00234 -0.00456298 0)
(1.00246 -0.00540395 0)
(1.00258 -0.00625753 0)
(1.00272 -0.00712549 0)
(1.00285 -0.0080079 0)
(1.00299 -0.00890363 0)
(1.00312 -0.00981077 0)
(1.00325 -0.0107266 0)
(1.00337 -0.0116475 0)
(1.00347 -0.0125695 0)
(1.00356 -0.013488 0)
(1.00363 -0.0143981 0)
(1.00367 -0.0152945 0)
(1.0037 -0.0161719 0)
(1.00369 -0.0170251 0)
(1.00366 -0.0178488 0)
(1.0036 -0.0186383 0)
(1.00352 -0.0193889 0)
(1.0034 -0.0200966 0)
(1.00325 -0.0207579 0)
(1.00308 -0.0213697 0)
(1.00289 -0.0219297 0)
(1.00266 -0.0224361 0)
(1.00242 -0.022888 0)
(1.00215 -0.0232848 0)
(1.00187 -0.0236267 0)
(1.00157 -0.0239144 0)
(1.00126 -0.0241492 0)
(1.00094 -0.0243327 0)
(1.00061 -0.0244668 0)
(1.00028 -0.024554 0)
(0.999944 -0.0245966 0)
(0.999607 -0.0245973 0)
(0.999271 -0.0245589 0)
(0.998938 -0.0244841 0)
(0.998609 -0.0243757 0)
(0.998286 -0.0242367 0)
(0.997969 -0.0240701 0)
(0.997661 -0.0238789 0)
(0.997362 -0.0236666 0)
(0.997072 -0.0234362 0)
(0.996794 -0.0231911 0)
(0.996531 -0.0229343 0)
(0.996284 -0.0226687 0)
(0.996056 -0.0223969 0)
(0.995845 -0.0221208 0)
(0.995647 -0.0218421 0)
(0.995455 -0.0215618 0)
(0.995262 -0.021281 0)
(0.995065 -0.0210007 0)
(0.994865 -0.0207218 0)
(0.994666 -0.0204452 0)
(0.994471 -0.0201716 0)
(0.994286 -0.0199018 0)
(0.994111 -0.0196365 0)
(0.993949 -0.0193763 0)
(0.993799 -0.0191218 0)
(0.99366 -0.0188733 0)
(0.993531 -0.0186314 0)
(0.993411 -0.0183964 0)
(0.993301 -0.0181686 0)
(0.993197 -0.0179481 0)
(0.993101 -0.0177353 0)
(0.993011 -0.0175302 0)
(1.00263 -0.000426992 0)
(1.00266 -0.00148861 0)
(1.00273 -0.00238254 0)
(1.00282 -0.003353 0)
(1.00294 -0.00429711 0)
(1.00308 -0.00525111 0)
(1.00323 -0.00621875 0)
(1.0034 -0.00720104 0)
(1.00358 -0.00820042 0)
(1.00376 -0.00921713 0)
(1.00395 -0.0102502 0)
(1.00413 -0.0112978 0)
(1.0043 -0.012357 0)
(1.00446 -0.0134241 0)
(1.00461 -0.0144948 0)
(1.00473 -0.015564 0)
(1.00484 -0.0166262 0)
(1.00491 -0.0176756 0)
(1.00495 -0.0187061 0)
(1.00496 -0.0197117 0)
(1.00493 -0.0206864 0)
(1.00486 -0.0216243 0)
(1.00476 -0.0225201 0)
(1.00462 -0.0233686 0)
(1.00443 -0.0241654 0)
(1.00422 -0.0249067 0)
(1.00396 -0.0255893 0)
(1.00367 -0.0262108 0)
(1.00335 -0.0267694 0)
(1.003 -0.0272643 0)
(1.00263 -0.0276949 0)
(1.00223 -0.0280619 0)
(1.00182 -0.0283661 0)
(1.00139 -0.0286091 0)
(1.00094 -0.0287931 0)
(1.00049 -0.0289204 0)
(1.00004 -0.0289942 0)
(0.999577 -0.0290176 0)
(0.999117 -0.0289943 0)
(0.99866 -0.0289281 0)
(0.998206 -0.0288229 0)
(0.99776 -0.0286826 0)
(0.997321 -0.0285108 0)
(0.996892 -0.028311 0)
(0.996473 -0.0280863 0)
(0.996066 -0.0278393 0)
(0.995671 -0.0275726 0)
(0.995286 -0.0272883 0)
(0.994911 -0.0269885 0)
(0.994544 -0.0266755 0)
(0.994186 -0.0263515 0)
(0.99384 -0.0260191 0)
(0.993512 -0.025681 0)
(0.993208 -0.0253397 0)
(0.99293 -0.0249975 0)
(0.992678 -0.024656 0)
(0.992448 -0.0243171 0)
(0.992235 -0.0239818 0)
(0.992035 -0.0236513 0)
(0.991844 -0.0233267 0)
(0.991662 -0.0230086 0)
(0.991487 -0.0226977 0)
(0.991319 -0.0223946 0)
(0.991159 -0.0220998 0)
(0.991006 -0.0218136 0)
(0.990861 -0.0215364 0)
(0.990724 -0.0212682 0)
(0.990595 -0.0210094 0)
(0.990472 -0.0207601 0)
(1.00331 -0.000480576 0)
(1.00335 -0.00166772 0)
(1.00344 -0.00267118 0)
(1.00355 -0.00375964 0)
(1.0037 -0.00481685 0)
(1.00388 -0.0058869 0)
(1.00407 -0.00697189 0)
(1.00429 -0.00807376 0)
(1.00451 -0.00919559 0)
(1.00475 -0.0103379 0)
(1.00499 -0.0114999 0)
(1.00522 -0.0126801 0)
(1.00545 -0.0138755 0)
(1.00567 -0.0150824 0)
(1.00586 -0.0162963 0)
(1.00603 -0.0175118 0)
(1.00617 -0.0187232 0)
(1.00628 -0.019924 0)
(1.00635 -0.0211076 0)
(1.00637 -0.0222673 0)
(1.00635 -0.0233963 0)
(1.00629 -0.0244877 0)
(1.00617 -0.0255354 0)
(1.006 -0.0265332 0)
(1.00578 -0.0274757 0)
(1.00552 -0.0283581 0)
(1.00521 -0.0291763 0)
(1.00485 -0.0299268 0)
(1.00445 -0.0306071 0)
(1.00401 -0.0312156 0)
(1.00354 -0.0317512 0)
(1.00303 -0.0322139 0)
(1.0025 -0.0326043 0)
(1.00195 -0.0329238 0)
(1.00138 -0.0331743 0)
(1.0008 -0.0333585 0)
(1.00021 -0.0334791 0)
(0.999613 -0.0335395 0)
(0.999016 -0.033543 0)
(0.998422 -0.0334933 0)
(0.997832 -0.033394 0)
(0.997252 -0.0332487 0)
(0.996681 -0.0330613 0)
(0.996124 -0.0328359 0)
(0.995581 -0.0325767 0)
(0.995054 -0.0322882 0)
(0.994544 -0.031975 0)
(0.994055 -0.0316415 0)
(0.993587 -0.0312919 0)
(0.993143 -0.0309299 0)
(0.992724 -0.0305588 0)
(0.992327 -0.0301808 0)
(0.991947 -0.0297979 0)
(0.991578 -0.0294117 0)
(0.991215 -0.0290238 0)
(0.990859 -0.0286358 0)
(0.990513 -0.0282492 0)
(0.990179 -0.0278655 0)
(0.989862 -0.0274861 0)
(0.989562 -0.0271121 0)
(0.989281 -0.0267446 0)
(0.989018 -0.0263845 0)
(0.988772 -0.0260326 0)
(0.988542 -0.0256894 0)
(0.988327 -0.0253555 0)
(0.988126 -0.0250315 0)
(0.987937 -0.0247176 0)
(0.98776 -0.0244142 0)
(0.987594 -0.0241215 0)
(1.00402 -0.000529781 0)
(1.00407 -0.00182924 0)
(1.00418 -0.00293067 0)
(1.00432 -0.00412548 0)
(1.0045 -0.00528469 0)
(1.00472 -0.00646001 0)
(1.00496 -0.00765175 0)
(1.00523 -0.00886297 0)
(1.00551 -0.0100974 0)
(1.0058 -0.0113559 0)
(1.0061 -0.0126381 0)
(1.00639 -0.0139427 0)
(1.00668 -0.0152671 0)
(1.00696 -0.0166076 0)
(1.00721 -0.0179596 0)
(1.00743 -0.0193179 0)
(1.00762 -0.0206762 0)
(1.00777 -0.022028 0)
(1.00787 -0.0233661 0)
(1.00792 -0.0246831 0)
(1.00792 -0.0259714 0)
(1.00786 -0.0272237 0)
(1.00773 -0.0284324 0)
(1.00755 -0.0295907 0)
(1.0073 -0.030692 0)
(1.00699 -0.0317303 0)
(1.00663 -0.0327003 0)
(1.0062 -0.0335976 0)
(1.00572 -0.0344186 0)
(1.00519 -0.0351606 0)
(1.00462 -0.0358218 0)
(1.004 -0.0364013 0)
(1.00335 -0.036899 0)
(1.00267 -0.0373157 0)
(1.00196 -0.037653 0)
(1.00124 -0.037913 0)
(1.0005 -0.0380985 0)
(0.999756 -0.038213 0)
(0.999006 -0.0382604 0)
(0.998257 -0.038245 0)
(0.997512 -0.0381716 0)
(0.996774 -0.0380453 0)
(0.996047 -0.0378712 0)
(0.995333 -0.0376542 0)
(0.994635 -0.0373988 0)
(0.993955 -0.0371092 0)
(0.993294 -0.0367891 0)
(0.992653 -0.0364416 0)
(0.992031 -0.0360699 0)
(0.991428 -0.0356771 0)
(0.990843 -0.0352665 0)
(0.990277 -0.0348416 0)
(0.989737 -0.0344062 0)
(0.989227 -0.0339636 0)
(0.98875 -0.0335171 0)
(0.988308 -0.0330691 0)
(0.987895 -0.0326219 0)
(0.98751 -0.0321773 0)
(0.987146 -0.031737 0)
(0.986801 -0.0313024 0)
(0.986472 -0.030875 0)
(0.98616 -0.0304558 0)
(0.985863 -0.0300458 0)
(0.985581 -0.0296458 0)
(0.985314 -0.0292566 0)
(0.985061 -0.0288787 0)
(0.984823 -0.0285125 0)
(0.984598 -0.0281584 0)
(0.984386 -0.0278167 0)
(1.00477 -0.000573633 0)
(1.00483 -0.00197084 0)
(1.00495 -0.00315802 0)
(1.00512 -0.00444651 0)
(1.00534 -0.00569575 0)
(1.0056 -0.00696479 0)
(1.00589 -0.00825211 0)
(1.0062 -0.00956208 0)
(1.00654 -0.010899 0)
(1.0069 -0.0122642 0)
(1.00726 -0.0136579 0)
(1.00762 -0.0150791 0)
(1.00797 -0.0165255 0)
(1.00831 -0.0179939 0)
(1.00862 -0.0194797 0)
(1.00891 -0.0209778 0)
(1.00915 -0.0224818 0)
(1.00935 -0.023985 0)
(1.0095 -0.0254799 0)
(1.00958 -0.0269586 0)
(1.00961 -0.0284129 0)
(1.00956 -0.0298347 0)
(1.00944 -0.0312155 0)
(1.00925 -0.0325474 0)
(1.00898 -0.0338226 0)
(1.00864 -0.035034 0)
(1.00822 -0.036175 0)
(1.00773 -0.03724 0)
(1.00718 -0.0382239 0)
(1.00656 -0.0391229 0)
(1.00588 -0.039934 0)
(1.00515 -0.0406551 0)
(1.00438 -0.0412855 0)
(1.00356 -0.041825 0)
(1.00271 -0.0422746 0)
(1.00184 -0.0426362 0)
(1.00094 -0.0429124 0)
(1.00004 -0.0431066 0)
(0.999118 -0.0432226 0)
(0.998199 -0.0432646 0)
(0.997283 -0.0432368 0)
(0.996374 -0.0431439 0)
(0.995478 -0.0429903 0)
(0.994597 -0.0427807 0)
(0.993736 -0.0425202 0)
(0.992897 -0.0422141 0)
(0.992083 -0.0418683 0)
(0.991296 -0.0414885 0)
(0.990539 -0.0410804 0)
(0.989814 -0.0406495 0)
(0.989124 -0.0402002 0)
(0.988467 -0.0397364 0)
(0.98784 -0.0392613 0)
(0.987236 -0.0387774 0)
(0.986652 -0.0382873 0)
(0.986085 -0.0377935 0)
(0.985538 -0.0372986 0)
(0.985012 -0.036805 0)
(0.984512 -0.0363147 0)
(0.984039 -0.0358296 0)
(0.983593 -0.0353512 0)
(0.983173 -0.0348808 0)
(0.982779 -0.0344196 0)
(0.98241 -0.0339687 0)
(0.982062 -0.033529 0)
(0.981736 -0.0331011 0)
(0.98143 -0.0326857 0)
(0.981142 -0.0322833 0)
(0.980872 -0.0318944 0)
(1.00553 -0.000611449 0)
(1.0056 -0.00209131 0)
(1.00574 -0.00335206 0)
(1.00594 -0.00472119 0)
(1.00619 -0.00604817 0)
(1.00649 -0.00739912 0)
(1.00683 -0.00877075 0)
(1.00721 -0.0101688 0)
(1.0076 -0.011598 0)
(1.00802 -0.0130605 0)
(1.00845 -0.014557 0)
(1.00888 -0.0160871 0)
(1.0093 -0.0176489 0)
(1.00971 -0.0192396 0)
(1.0101 -0.020855 0)
(1.01045 -0.02249 0)
(1.01076 -0.0241385 0)
(1.01102 -0.0257937 0)
(1.01122 -0.0274479 0)
(1.01135 -0.0290929 0)
(1.01141 -0.03072 0)
(1.01139 -0.0323202 0)
(1.01129 -0.0338844 0)
(1.0111 -0.0354035 0)
(1.01082 -0.0368687 0)
(1.01046 -0.0382714 0)
(1.01 -0.0396039 0)
(1.00946 -0.0408588 0)
(1.00884 -0.0420298 0)
(1.00814 -0.0431115 0)
(1.00736 -0.0440994 0)
(1.00652 -0.0449904 0)
(1.00562 -0.0457822 0)
(1.00467 -0.0464738 0)
(1.00367 -0.0470652 0)
(1.00264 -0.0475573 0)
(1.00158 -0.0479522 0)
(1.0005 -0.0482525 0)
(0.999406 -0.0484617 0)
(0.998305 -0.048584 0)
(0.997203 -0.0486243 0)
(0.996108 -0.0485881 0)
(0.995023 -0.0484815 0)
(0.993954 -0.0483107 0)
(0.992904 -0.048082 0)
(0.991878 -0.0478012 0)
(0.990877 -0.0474736 0)
(0.989905 -0.0471039 0)
(0.988961 -0.0466963 0)
(0.988047 -0.0462551 0)
(0.987161 -0.0457847 0)
(0.986306 -0.0452897 0)
(0.985483 -0.044775 0)
(0.9847 -0.0442456 0)
(0.98396 -0.0437057 0)
(0.983265 -0.0431592 0)
(0.982614 -0.042609 0)
(0.982001 -0.042058 0)
(0.981422 -0.0415086 0)
(0.980873 -0.0409631 0)
(0.980352 -0.0404237 0)
(0.979858 -0.039892 0)
(0.979388 -0.0393699 0)
(0.978944 -0.0388586 0)
(0.978523 -0.0383593 0)
(0.978126 -0.037873 0)
(0.977751 -0.0374005 0)
(0.977398 -0.0369425 0)
(0.977065 -0.0364995 0)
(1.00629 -0.000642952 0)
(1.00637 -0.0021904 0)
(1.00654 -0.00351266 0)
(1.00676 -0.00494932 0)
(1.00705 -0.00634172 0)
(1.0074 -0.00776272 0)
(1.00779 -0.00920731 0)
(1.00822 -0.0106825 0)
(1.00868 -0.0121939 0)
(1.00916 -0.013744 0)
(1.00966 -0.0153345 0)
(1.01016 -0.0169654 0)
(1.01066 -0.0186354 0)
(1.01115 -0.0203423 0)
(1.01161 -0.0220823 0)
(1.01204 -0.0238507 0)
(1.01243 -0.0256416 0)
(1.01276 -0.0274484 0)
(1.01302 -0.0292633 0)
(1.01322 -0.0310779 0)
(1.01333 -0.0328832 0)
(1.01335 -0.0346696 0)
(1.01328 -0.0364273 0)
(1.01311 -0.0381462 0)
(1.01283 -0.0398163 0)
(1.01246 -0.0414279 0)
(1.01198 -0.0429716 0)
(1.0114 -0.0444386 0)
(1.01072 -0.0458209 0)
(1.00994 -0.0471115 0)
(1.00908 -0.0483043 0)
(1.00813 -0.0493943 0)
(1.00711 -0.0503778 0)
(1.00603 -0.0512523 0)
(1.00488 -0.0520164 0)
(1.00369 -0.0526701 0)
(1.00246 -0.0532144 0)
(1.0012 -0.0536514 0)
(0.999911 -0.0539845 0)
(0.998614 -0.0542175 0)
(0.997312 -0.0543552 0)
(0.996012 -0.0544026 0)
(0.994721 -0.054365 0)
(0.993446 -0.0542479 0)
(0.992193 -0.0540568 0)
(0.990966 -0.053798 0)
(0.989769 -0.0534781 0)
(0.988607 -0.0531041 0)
(0.987483 -0.0526836 0)
(0.9864 -0.0522235 0)
(0.985362 -0.0517306 0)
(0.984371 -0.0512105 0)
(0.983424 -0.0506677 0)
(0.982516 -0.0501063 0)
(0.981642 -0.04953 0)
(0.980797 -0.0489427 0)
(0.979983 -0.0483483 0)
(0.979203 -0.0477505 0)
(0.978459 -0.0471524 0)
(0.977753 -0.0465569 0)
(0.977086 -0.0459663 0)
(0.976458 -0.0453827 0)
(0.975867 -0.0448079 0)
(0.97531 -0.0442436 0)
(0.974786 -0.0436911 0)
(0.974293 -0.0431517 0)
(0.97383 -0.0426263 0)
(0.973395 -0.042116 0)
(0.972986 -0.0416215 0)
(1.00704 -0.000668341 0)
(1.00714 -0.0022689 0)
(1.00732 -0.0036408 0)
(1.00758 -0.00513217 0)
(1.0079 -0.00657797 0)
(1.00829 -0.0080573 0)
(1.00874 -0.00956352 0)
(1.00922 -0.011105 0)
(1.00975 -0.012688 0)
(1.0103 -0.0143158 0)
(1.01088 -0.0159906 0)
(1.01146 -0.0177135 0)
(1.01205 -0.0194837 0)
(1.01262 -0.0212994 0)
(1.01317 -0.0231577 0)
(1.01368 -0.0250543 0)
(1.01415 -0.0269837 0)
(1.01456 -0.0289396 0)
(1.0149 -0.0309143 0)
(1.01517 -0.0328994 0)
(1.01535 -0.0348858 0)
(1.01543 -0.0368635 0)
(1.0154 -0.038822 0)
(1.01527 -0.0407505 0)
(1.01502 -0.042638 0)
(1.01465 -0.0444733 0)
(1.01416 -0.0462458 0)
(1.01355 -0.047945 0)
(1.01283 -0.0495613 0)
(1.012 -0.0510856 0)
(1.01105 -0.0525101 0)
(1.01001 -0.0538278 0)
(1.00888 -0.0550332 0)
(1.00766 -0.0561219 0)
(1.00637 -0.0570912 0)
(1.00502 -0.0579394 0)
(1.00361 -0.0586664 0)
(1.00216 -0.0592732 0)
(1.00068 -0.059762 0)
(0.999175 -0.0601359 0)
(0.997661 -0.0603992 0)
(0.996144 -0.0605569 0)
(0.994632 -0.0606151 0)
(0.993134 -0.0605806 0)
(0.991656 -0.0604608 0)
(0.990204 -0.0602632 0)
(0.988783 -0.0599949 0)
(0.987396 -0.0596626 0)
(0.986048 -0.0592723 0)
(0.984739 -0.0588296 0)
(0.98347 -0.0583402 0)
(0.982241 -0.05781 0)
(0.981056 -0.0572457 0)
(0.97992 -0.0566538 0)
(0.978839 -0.0560404 0)
(0.977819 -0.055411 0)
(0.976857 -0.0547698 0)
(0.97595 -0.0541208 0)
(0.975092 -0.0534676 0)
(0.974279 -0.0528136 0)
(0.973508 -0.0521619 0)
(0.972775 -0.0515156 0)
(0.97208 -0.0508771 0)
(0.971422 -0.0502488 0)
(0.970799 -0.0496324 0)
(0.970212 -0.0490296 0)
(0.969657 -0.0484418 0)
(0.969135 -0.0478701 0)
(0.968643 -0.0473156 0)
(1.00777 -0.000688193 0)
(1.00788 -0.00232864 0)
(1.00809 -0.00373893 0)
(1.00837 -0.00527304 0)
(1.00874 -0.00676094 0)
(1.00918 -0.0082874 0)
(1.00967 -0.00984429 0)
(1.01022 -0.0114413 0)
(1.01081 -0.0130852 0)
(1.01144 -0.0147803 0)
(1.01209 -0.0165296 0)
(1.01276 -0.0183347 0)
(1.01343 -0.0201958 0)
(1.01409 -0.0221118 0)
(1.01473 -0.0240803 0)
(1.01534 -0.0260978 0)
(1.01591 -0.0281594 0)
(1.01641 -0.0302592 0)
(1.01685 -0.0323898 0)
(1.0172 -0.0345432 0)
(1.01745 -0.0367101 0)
(1.01761 -0.0388804 0)
(1.01765 -0.0410433 0)
(1.01756 -0.0431872 0)
(1.01735 -0.0453002 0)
(1.01701 -0.0473703 0)
(1.01653 -0.0493853 0)
(1.01592 -0.0513333 0)
(1.01517 -0.0532026 0)
(1.0143 -0.0549825 0)
(1.01329 -0.0566629 0)
(1.01217 -0.058235 0)
(1.01093 -0.0596909 0)
(1.00959 -0.0610244 0)
(1.00816 -0.0622305 0)
(1.00665 -0.0633057 0)
(1.00507 -0.0642481 0)
(1.00343 -0.0650572 0)
(1.00175 -0.0657341 0)
(1.00003 -0.066281 0)
(0.998292 -0.0667018 0)
(0.996544 -0.067001 0)
(0.994795 -0.0671843 0)
(0.993056 -0.0672576 0)
(0.991334 -0.0672272 0)
(0.989639 -0.0670999 0)
(0.987976 -0.0668831 0)
(0.986353 -0.0665847 0)
(0.984774 -0.0662136 0)
(0.983246 -0.0657789 0)
(0.981773 -0.0652895 0)
(0.98036 -0.0647534 0)
(0.979008 -0.0641775 0)
(0.977711 -0.0635673 0)
(0.976465 -0.0629284 0)
(0.975263 -0.0622661 0)
(0.974105 -0.0615861 0)
(0.972992 -0.0608939 0)
(0.97193 -0.0601942 0)
(0.97092 -0.0594915 0)
(0.969965 -0.0587891 0)
(0.969063 -0.0580902 0)
(0.968213 -0.0573977 0)
(0.967411 -0.056714 0)
(0.966656 -0.0560412 0)
(0.965946 -0.0553815 0)
(0.965277 -0.0547363 0)
(0.964648 -0.0541073 0)
(0.964056 -0.0534958 0)
(1.00849 -0.00070327 0)
(1.00861 -0.00237214 0)
(1.00884 -0.00381085 0)
(1.00915 -0.0053771 0)
(1.00956 -0.00689699 0)
(1.01004 -0.00846033 0)
(1.01059 -0.0100577 0)
(1.0112 -0.0116999 0)
(1.01186 -0.0133945 0)
(1.01256 -0.0151466 0)
(1.0133 -0.01696 0)
(1.01405 -0.018837 0)
(1.01481 -0.0207788 0)
(1.01557 -0.022785 0)
(1.01631 -0.0248542 0)
(1.01702 -0.0269833 0)
(1.01769 -0.0291684 0)
(1.01829 -0.031404 0)
(1.01883 -0.0336836 0)
(1.01928 -0.0359993 0)
(1.01963 -0.0383423 0)
(1.01987 -0.0407024 0)
(1.02 -0.0430686 0)
(1.01998 -0.0454291 0)
(1.01983 -0.0477715 0)
(1.01954 -0.0500825 0)
(1.01909 -0.052349 0)
(1.01849 -0.0545574 0)
(1.01774 -0.0566947 0)
(1.01684 -0.0587479 0)
(1.01579 -0.0607051 0)
(1.0146 -0.062555 0)
(1.01328 -0.0642875 0)
(1.01183 -0.0658939 0)
(1.01027 -0.067367 0)
(1.00861 -0.068701 0)
(1.00686 -0.0698921 0)
(1.00503 -0.0709379 0)
(1.00315 -0.0718378 0)
(1.00121 -0.0725928 0)
(0.999241 -0.0732054 0)
(0.997251 -0.0736793 0)
(0.995252 -0.0740194 0)
(0.993255 -0.074232 0)
(0.991272 -0.0743246 0)
(0.989312 -0.0743055 0)
(0.987383 -0.0741834 0)
(0.985493 -0.0739669 0)
(0.983647 -0.0736639 0)
(0.981849 -0.0732818 0)
(0.980102 -0.0728279 0)
(0.978405 -0.0723095 0)
(0.976763 -0.071735 0)
(0.975181 -0.071113 0)
(0.973668 -0.0704523 0)
(0.972231 -0.0697604 0)
(0.970873 -0.0690438 0)
(0.969591 -0.0683079 0)
(0.968377 -0.0675578 0)
(0.967225 -0.0667984 0)
(0.966131 -0.0660345 0)
(0.965092 -0.0652706 0)
(0.964106 -0.0645104 0)
(0.963172 -0.0637576 0)
(0.962289 -0.0630151 0)
(0.961454 -0.0622853 0)
(0.960667 -0.0615705 0)
(0.959925 -0.0608727 0)
(0.959227 -0.0601934 0)
(1.00918 -0.000714394 0)
(1.00931 -0.00240225 0)
(1.00956 -0.00386111 0)
(1.0099 -0.00545057 0)
(1.01035 -0.00699377 0)
(1.01088 -0.00858502 0)
(1.01148 -0.0102137 0)
(1.01215 -0.0118917 0)
(1.01288 -0.0136273 0)
(1.01366 -0.0154263 0)
(1.01448 -0.0172935 0)
(1.01532 -0.019232 0)
(1.01618 -0.0212437 0)
(1.01703 -0.0233293 0)
(1.01788 -0.025488 0)
(1.0187 -0.0277178 0)
(1.01947 -0.0300156 0)
(1.02019 -0.0323768 0)
(1.02084 -0.0347954 0)
(1.02141 -0.0372644 0)
(1.02187 -0.0397753 0)
(1.02221 -0.0423184 0)
(1.02243 -0.0448828 0)
(1.02251 -0.0474566 0)
(1.02244 -0.050027 0)
(1.02221 -0.0525803 0)
(1.02182 -0.0551022 0)
(1.02126 -0.0575781 0)
(1.02053 -0.0599933 0)
(1.01962 -0.0623332 0)
(1.01855 -0.0645836 0)
(1.01732 -0.0667311 0)
(1.01593 -0.0687631 0)
(1.01439 -0.0706683 0)
(1.01271 -0.072437 0)
(1.01091 -0.0740608 0)
(1.009 -0.0755333 0)
(1.00699 -0.0768498 0)
(1.00491 -0.0780074 0)
(1.00275 -0.0790051 0)
(1.00055 -0.0798437 0)
(0.998307 -0.0805256 0)
(0.996046 -0.081055 0)
(0.993779 -0.0814374 0)
(0.991517 -0.0816789 0)
(0.989274 -0.0817867 0)
(0.98706 -0.0817684 0)
(0.984884 -0.0816329 0)
(0.982757 -0.0813898 0)
(0.980685 -0.08105 0)
(0.978677 -0.0806248 0)
(0.976741 -0.0801253 0)
(0.974881 -0.0795609 0)
(0.973097 -0.07894 0)
(0.971382 -0.0782697 0)
(0.969729 -0.0775572 0)
(0.968133 -0.0768102 0)
(0.966598 -0.0760367 0)
(0.965128 -0.0752438 0)
(0.963729 -0.0744378 0)
(0.962403 -0.073624 0)
(0.96115 -0.072807 0)
(0.959966 -0.071991 0)
(0.95885 -0.0711797 0)
(0.957798 -0.0703765 0)
(0.956807 -0.0695845 0)
(0.955874 -0.0688061 0)
(0.954996 -0.068044 0)
(0.95417 -0.0673003 0)
(1.00984 -0.000722379 0)
(1.00999 -0.00242179 0)
(1.01025 -0.00389429 0)
(1.01063 -0.00549978 0)
(1.01111 -0.00705909 0)
(1.01168 -0.00867065 0)
(1.01234 -0.0103227 0)
(1.01308 -0.0120281 0)
(1.01388 -0.0137958 0)
(1.01473 -0.0156324 0)
(1.01563 -0.0175435 0)
(1.01657 -0.019533 0)
(1.01752 -0.0216037 0)
(1.01848 -0.0237572 0)
(1.01943 -0.0259937 0)
(1.02036 -0.0283122 0)
(1.02126 -0.0307105 0)
(1.0221 -0.0331849 0)
(1.02287 -0.0357306 0)
(1.02355 -0.0383411 0)
(1.02414 -0.0410088 0)
(1.0246 -0.0437246 0)
(1.02494 -0.0464782 0)
(1.02512 -0.0492579 0)
(1.02515 -0.0520507 0)
(1.02501 -0.0548428 0)
(1.0247 -0.0576194 0)
(1.0242 -0.0603649 0)
(1.02351 -0.0630633 0)
(1.02263 -0.0656985 0)
(1.02156 -0.0682543 0)
(1.02031 -0.0707152 0)
(1.01887 -0.073066 0)
(1.01726 -0.0752929 0)
(1.01549 -0.0773832 0)
(1.01357 -0.0793257 0)
(1.01151 -0.081111 0)
(1.00933 -0.0827316 0)
(1.00705 -0.084182 0)
(1.00468 -0.085459 0)
(1.00224 -0.0865613 0)
(0.999742 -0.0874896 0)
(0.99721 -0.0882467 0)
(0.994659 -0.088837 0)
(0.992102 -0.0892665 0)
(0.989556 -0.089543 0)
(0.987033 -0.0896757 0)
(0.984544 -0.0896744 0)
(0.982101 -0.0895488 0)
(0.97971 -0.0893084 0)
(0.977378 -0.0889618 0)
(0.975107 -0.0885179 0)
(0.972901 -0.0879865 0)
(0.970764 -0.0873786 0)
(0.96871 -0.0867059 0)
(0.96675 -0.0859794 0)
(0.964891 -0.0852083 0)
(0.963133 -0.0844003 0)
(0.961467 -0.0835627 0)
(0.959886 -0.0827022 0)
(0.958383 -0.0818259 0)
(0.956955 -0.0809403 0)
(0.955599 -0.0800511 0)
(0.954314 -0.0791636 0)
(0.953097 -0.0782824 0)
(0.951948 -0.0774113 0)
(0.950864 -0.0765537 0)
(0.949842 -0.0757126 0)
(0.94888 -0.0748905 0)
(1.01048 -0.000727974 0)
(1.01063 -0.00243333 0)
(1.01092 -0.00391449 0)
(1.01132 -0.00553036 0)
(1.01184 -0.00710002 0)
(1.01246 -0.00872562 0)
(1.01317 -0.0103943 0)
(1.01397 -0.0121197 0)
(1.01484 -0.0139115 0)
(1.01577 -0.0157772 0)
(1.01675 -0.0177228 0)
(1.01778 -0.0197533 0)
(1.01883 -0.0218723 0)
(1.01989 -0.0240823 0)
(1.02096 -0.0263845 0)
(1.02201 -0.0287791 0)
(1.02302 -0.0312648 0)
(1.02399 -0.033839 0)
(1.02489 -0.0364979 0)
(1.0257 -0.0392363 0)
(1.02642 -0.0420474 0)
(1.02702 -0.0449231 0)
(1.02748 -0.0478537 0)
(1.02779 -0.0508282 0)
(1.02794 -0.0538341 0)
(1.02791 -0.0568576 0)
(1.0277 -0.0598837 0)
(1.02728 -0.0628963 0)
(1.02666 -0.0658785 0)
(1.02584 -0.068813 0)
(1.0248 -0.0716819 0)
(1.02355 -0.0744676 0)
(1.0221 -0.0771527 0)
(1.02044 -0.0797206 0)
(1.0186 -0.0821557 0)
(1.01658 -0.0844438 0)
(1.0144 -0.0865722 0)
(1.01206 -0.0885304 0)
(1.00959 -0.0903098 0)
(1.00701 -0.0919041 0)
(1.00434 -0.093309 0)
(1.00159 -0.0945229 0)
(0.998781 -0.0955461 0)
(0.995937 -0.0963811 0)
(0.993074 -0.0970323 0)
(0.99021 -0.0975057 0)
(0.987361 -0.0978083 0)
(0.984542 -0.0979487 0)
(0.981765 -0.0979369 0)
(0.979044 -0.0977845 0)
(0.97639 -0.097505 0)
(0.973815 -0.0971124 0)
(0.971331 -0.0966202 0)
(0.968942 -0.0960399 0)
(0.966644 -0.0953811 0)
(0.964428 -0.0946532 0)
(0.962286 -0.0938659 0)
(0.96022 -0.09303 0)
(0.958237 -0.0921559 0)
(0.956345 -0.0912529 0)
(0.954548 -0.0903286 0)
(0.952848 -0.0893899 0)
(0.951242 -0.0884428 0)
(0.949726 -0.0874929 0)
(0.948297 -0.0865453 0)
(0.94695 -0.0856045 0)
(0.945682 -0.0846748 0)
(0.944488 -0.0837598 0)
(0.943366 -0.0828628 0)
(1.01108 -0.00073179 0)
(1.01125 -0.00243891 0)
(1.01155 -0.00392494 0)
(1.01198 -0.0055468 0)
(1.01254 -0.00712223 0)
(1.0132 -0.00875673 0)
(1.01397 -0.0104364 0)
(1.01483 -0.0121755 0)
(1.01576 -0.0139844 0)
(1.01677 -0.0158712 0)
(1.01784 -0.0178427 0)