/*--------------------------------*- C++ -*----------------------------------*\
  =========                 |
  \\      /  F ield         | OpenFOAM: The Open Source CFD Toolbox
   \\    /   O peration     | Website:  https://openfoam.org
    \\  /    A nd           | Version:  10
     \\/     M anipulation  |
\*---------------------------------------------------------------------------*/
FoamFile
{
    format      ascii;
    class       volVectorField;
    location    "550";
    object      U;
}
// * * * * * * * * * * * * * * * * * * * * * * * * * * * * * * * * * * * * * //

dimensions      [0 1 -1 0 0 0 0];

internalField   nonuniform List<vector> 
66268
(
(1 -4.49902e-05 0)
(1 -0.000164988 0)
(1 -0.000263094 0)
(1 -0.000365653 0)
(1 -0.000465684 0)
(1 -0.000563792 0)
(1 -0.000660596 0)
(1 -0.000756127 0)
(1 -0.000850259 0)
(1 -0.000942817 0)
(1 -0.00103356 0)
(1 -0.00112216 0)
(1 -0.00120828 0)
(1 -0.0012915 0)
(1 -0.00137141 0)
(1 -0.0014476 0)
(1 -0.00151965 0)
(1 -0.00158715 0)
(1 -0.00164976 0)
(1 -0.00170714 0)
(1 -0.00175903 0)
(1 -0.0018052 0)
(1 -0.0018455 0)
(1 -0.00187983 0)
(1 -0.00190815 0)
(1 -0.0019305 0)
(1 -0.00194695 0)
(1 -0.00195765 0)
(1 -0.00196278 0)
(1 -0.00196258 0)
(1 -0.00195732 0)
(1 -0.00194732 0)
(1 -0.00193287 0)
(1 -0.00191433 0)
(1 -0.00189203 0)
(1 -0.00186633 0)
(1 -0.00183758 0)
(1 -0.00180614 0)
(1 -0.00177235 0)
(1 -0.00173653 0)
(1 -0.001699 0)
(1 -0.00166002 0)
(1 -0.00161984 0)
(1 -0.00157868 0)
(1 -0.00153674 0)
(1 -0.00149424 0)
(1 -0.00145136 0)
(1 -0.00140832 0)
(0.999998 -0.0013653 0)
(0.999995 -0.00132253 0)
(0.999991 -0.0012802 0)
(0.999987 -0.0012385 0)
(0.999982 -0.0011976 0)
(0.999977 -0.00115764 0)
(0.999974 -0.00111871 0)
(0.999972 -0.00108085 0)
(0.999971 -0.00104412 0)
(0.999971 -0.00100852 0)
(0.999973 -0.000974091 0)
(0.999975 -0.000940836 0)
(0.999978 -0.000908774 0)
(0.99998 -0.000877917 0)
(0.999983 -0.000848271 0)
(0.999985 -0.000819835 0)
(0.999987 -0.000792603 0)
(0.999989 -0.000766558 0)
(0.999991 -0.000741678 0)
(0.999992 -0.000717976 0)
(0.999993 -0.000695461 0)
(1.00019 -0.000132263 0)
(1.00019 -0.00047769 0)
(1.0002 -0.000759491 0)
(1.0002 -0.00105724 0)
(1.0002 -0.00134651 0)
(1.00021 -0.00163008 0)
(1.00021 -0.00191006 0)
(1.00022 -0.00218636 0)
(1.00022 -0.00245862 0)
(1.00023 -0.00272634 0)
(1.00023 -0.00298883 0)
(1.00023 -0.00324515 0)
(1.00023 -0.00349426 0)
(1.00023 -0.003735 0)
(1.00023 -0.00396616 0)
(1.00023 -0.00418649 0)
(1.00022 -0.00439477 0)
(1.00022 -0.00458985 0)
(1.00021 -0.00477064 0)
(1.0002 -0.00493619 0)
(1.00018 -0.00508569 0)
(1.00017 -0.00521848 0)
(1.00015 -0.00533408 0)
(1.00013 -0.00543218 0)
(1.00011 -0.00551267 0)
(1.00009 -0.00557562 0)
(1.00006 -0.00562126 0)
(1.00004 -0.00564999 0)
(1.00001 -0.00566235 0)
(0.999985 -0.00565903 0)
(0.999956 -0.00564085 0)
(0.999927 -0.0056087 0)
(0.999898 -0.00556352 0)
(0.999869 -0.00550628 0)
(0.999839 -0.005438 0)
(0.99981 -0.00535973 0)
(0.99978 -0.00527249 0)
(0.999752 -0.00517729 0)
(0.999723 -0.0050751 0)
(0.999695 -0.00496689 0)
(0.999668 -0.0048536 0)
(0.999641 -0.00473616 0)
(0.999615 -0.00461548 0)
(0.999589 -0.00449243 0)
(0.999565 -0.00436783 0)
(0.999541 -0.00424242 0)
(0.999518 -0.00411685 0)
(0.999497 -0.00399167 0)
(0.999477 -0.00386737 0)
(0.999459 -0.00374431 0)
(0.999444 -0.00362279 0)
(0.999431 -0.00350305 0)
(0.999419 -0.0033853 0)
(0.999408 -0.00326972 0)
(0.999397 -0.00315652 0)
(0.999385 -0.00304587 0)
(0.999373 -0.00293795 0)
(0.999359 -0.00283289 0)
(0.999345 -0.00273081 0)
(0.999331 -0.00263178 0)
(0.999317 -0.00253586 0)
(0.999304 -0.00244306 0)
(0.999292 -0.00235341 0)
(0.999281 -0.0022669 0)
(0.999271 -0.00218352 0)
(0.999262 -0.00210325 0)
(0.999253 -0.00202608 0)
(0.999246 -0.00195199 0)
(0.999239 -0.00188105 0)
(1.00058 -0.000215671 0)
(1.00057 -0.000768155 0)
(1.00059 -0.00121846 0)
(1.00059 -0.00169955 0)
(1.00061 -0.00216495 0)
(1.00062 -0.00262143 0)
(1.00063 -0.00307292 0)
(1.00065 -0.0035189 0)
(1.00066 -0.00395887 0)
(1.00067 -0.00439214 0)
(1.00068 -0.00481758 0)
(1.00069 -0.00523374 0)
(1.00069 -0.00563894 0)
(1.00069 -0.00603131 0)
(1.00069 -0.00640888 0)
(1.00068 -0.00676962 0)
(1.00066 -0.00711154 0)
(1.00064 -0.0074327 0)
(1.00062 -0.00773131 0)
(1.00058 -0.00800572 0)
(1.00054 -0.00825455 0)
(1.0005 -0.00847664 0)
(1.00045 -0.00867112 0)
(1.00039 -0.00883739 0)
(1.00033 -0.00897517 0)
(1.00026 -0.00908446 0)
(1.00019 -0.00916556 0)
(1.00011 -0.00921901 0)
(1.00003 -0.00924563 0)
(0.999953 -0.00924645 0)
(0.99987 -0.00922273 0)
(0.999786 -0.00917587 0)
(0.9997 -0.00910737 0)
(0.999615 -0.00901878 0)
(0.99953 -0.00891174 0)
(0.999445 -0.00878792 0)
(0.999362 -0.00864902 0)
(0.99928 -0.00849676 0)
(0.9992 -0.00833284 0)
(0.999122 -0.0081589 0)
(0.999047 -0.00797654 0)
(0.998974 -0.0077872 0)
(0.998904 -0.00759222 0)
(0.998836 -0.00739282 0)
(0.998772 -0.00719007 0)
(0.99871 -0.006985 0)
(0.998651 -0.00677853 0)
(0.998595 -0.00657154 0)
(0.998541 -0.00636486 0)
(0.998489 -0.00615927 0)
(0.998439 -0.00595552 0)
(0.998391 -0.0057543 0)
(0.998345 -0.00555624 0)
(0.998302 -0.00536187 0)
(0.998263 -0.00517163 0)
(0.998227 -0.00498586 0)
(0.998196 -0.00480485 0)
(0.998168 -0.00462881 0)
(0.998144 -0.00445793 0)
(0.998122 -0.00429235 0)
(0.998103 -0.0041322 0)
(0.998085 -0.00397755 0)
(0.998068 -0.00382847 0)
(0.998052 -0.00368497 0)
(0.998037 -0.00354704 0)
(0.998023 -0.00341466 0)
(0.998009 -0.00328777 0)
(0.997996 -0.00316633 0)
(0.997984 -0.00305031 0)
(1.00109 -0.000296071 0)
(1.0011 -0.00104444 0)
(1.00112 -0.00165657 0)
(1.00113 -0.00231463 0)
(1.00116 -0.00294884 0)
(1.00118 -0.00357228 0)
(1.00121 -0.00419007 0)
(1.00124 -0.00480118 0)
(1.00126 -0.00540523 0)
(1.00129 -0.00600144 0)
(1.00131 -0.0065883 0)
(1.00132 -0.00716391 0)
(1.00133 -0.00772603 0)
(1.00133 -0.00827213 0)
(1.00132 -0.00879953 0)
(1.00131 -0.00930544 0)
(1.00128 -0.00978706 0)
(1.00124 -0.0102417 0)
(1.00119 -0.0106667 0)
(1.00113 -0.0110598 0)
(1.00105 -0.0114188 0)
(1.00097 -0.0117421 0)
(1.00087 -0.0120281 0)
(1.00077 -0.012276 0)
(1.00065 -0.012485 0)
(1.00052 -0.0126551 0)
(1.00039 -0.0127863 0)
(1.00024 -0.0128792 0)
(1.0001 -0.0129348 0)
(0.999943 -0.0129544 0)
(0.999786 -0.0129394 0)
(0.999627 -0.0128916 0)
(0.999466 -0.012813 0)
(0.999305 -0.0127056 0)
(0.999145 -0.0125716 0)
(0.998986 -0.0124134 0)
(0.998829 -0.0122332 0)
(0.998675 -0.0120333 0)
(0.998525 -0.011816 0)
(0.998379 -0.0115835 0)
(0.998237 -0.0113379 0)
(0.9981 -0.0110813 0)
(0.997969 -0.0108155 0)
(0.997842 -0.0105426 0)
(0.997721 -0.0102642 0)
(0.997606 -0.00998223 0)
(0.997496 -0.00969811 0)
(0.997393 -0.00941333 0)
(0.997295 -0.00912915 0)
(0.997204 -0.0088467 0)
(0.997119 -0.00856694 0)
(0.997041 -0.00829066 0)
(0.996968 -0.0080186 0)
(0.9969 -0.00775136 0)
(0.996835 -0.00748951 0)
(0.996772 -0.00723358 0)
(0.996712 -0.006984 0)
(0.996653 -0.00674115 0)
(0.996597 -0.00650531 0)
(0.996543 -0.00627669 0)
(0.996492 -0.00605544 0)
(0.996445 -0.00584165 0)
(0.9964 -0.00563534 0)
(0.996359 -0.00543653 0)
(0.996321 -0.00524521 0)
(0.996285 -0.00506131 0)
(0.996253 -0.00488478 0)
(0.996223 -0.00471555 0)
(0.996195 -0.00455361 0)
(1.00171 -0.000373872 0)
(1.00171 -0.0013118 0)
(1.00174 -0.00208441 0)
(1.00177 -0.00291589 0)
(1.00181 -0.00371511 0)
(1.00185 -0.00450341 0)
(1.00189 -0.00528589 0)
(1.00194 -0.00606121 0)
(1.00198 -0.0068294 0)
(1.00202 -0.00758961 0)
(1.00206 -0.00834005 0)
(1.00208 -0.00907847 0)
(1.0021 -0.00980211 0)
(1.0021 -0.0105079 0)
(1.0021 -0.0111924 0)
(1.00207 -0.0118522 0)
(1.00203 -0.0124835 0)
(1.00198 -0.013083 0)
(1.0019 -0.0136472 0)
(1.00181 -0.0141729 0)
(1.0017 -0.0146572 0)
(1.00157 -0.0150977 0)
(1.00142 -0.0154923 0)
(1.00126 -0.0158394 0)
(1.00108 -0.0161379 0)
(1.00088 -0.0163873 0)
(1.00067 -0.0165874 0)
(1.00045 -0.0167388 0)
(1.00022 -0.0168422 0)
(0.999981 -0.016899 0)
(0.999735 -0.0169108 0)
(0.999484 -0.0168797 0)
(0.99923 -0.016808 0)
(0.998975 -0.0166982 0)
(0.99872 -0.0165531 0)
(0.998467 -0.0163755 0)
(0.998217 -0.0161683 0)
(0.997971 -0.0159344 0)
(0.997729 -0.0156767 0)
(0.997494 -0.0153982 0)
(0.997266 -0.0151016 0)
(0.997045 -0.0147899 0)
(0.996831 -0.0144655 0)
(0.996626 -0.0141309 0)
(0.996428 -0.0137883 0)
(0.996239 -0.0134399 0)
(0.996059 -0.0130874 0)
(0.995886 -0.0127327 0)
(0.995721 -0.0123773 0)
(0.995563 -0.0120226 0)
(0.995412 -0.0116701 0)
(0.995268 -0.011321 0)
(0.995131 -0.0109765 0)
(0.995002 -0.0106374 0)
(0.994882 -0.0103047 0)
(0.994771 -0.00997904 0)
(0.99467 -0.00966094 0)
(0.994576 -0.00935087 0)
(0.994491 -0.0090492 0)
(0.994412 -0.00875625 0)
(0.994339 -0.00847228 0)
(0.994271 -0.0081975 0)
(0.994207 -0.00793205 0)
(0.994148 -0.00767603 0)
(0.994092 -0.00742949 0)
(0.99404 -0.00719242 0)
(0.993991 -0.00696477 0)
(0.993946 -0.00674651 0)
(0.993903 -0.00653759 0)
(1.00239 -0.000449143 0)
(1.00241 -0.00157026 0)
(1.00245 -0.0025007 0)
(1.00249 -0.00350101 0)
(1.00254 -0.00446102 0)
(1.0026 -0.00541139 0)
(1.00267 -0.00635609 0)
(1.00273 -0.00729393 0)
(1.0028 -0.00822547 0)
(1.00286 -0.00914981 0)
(1.00291 -0.010065 0)
(1.00296 -0.0109686 0)
(1.00299 -0.0118574 0)
(1.003 -0.0127277 0)
(1.003 -0.0135757 0)
(1.00298 -0.014397 0)
(1.00293 -0.0151873 0)
(1.00286 -0.0159422 0)
(1.00277 -0.0166575 0)
(1.00265 -0.0173292 0)
(1.0025 -0.0179535 0)
(1.00232 -0.0185271 0)
(1.00212 -0.0190472 0)
(1.0019 -0.0195114 0)
(1.00165 -0.0199181 0)
(1.00137 -0.0202661 0)
(1.00108 -0.0205549 0)
(1.00077 -0.0207845 0)
(1.00045 -0.0209556 0)
(1.00011 -0.0210694 0)
(0.999756 -0.0211276 0)
(0.999397 -0.0211324 0)
(0.999033 -0.0210864 0)
(0.998666 -0.0209922 0)
(0.998297 -0.0208532 0)
(0.99793 -0.0206725 0)
(0.997566 -0.0204535 0)
(0.997207 -0.0201998 0)
(0.996855 -0.0199147 0)
(0.99651 -0.0196019 0)
(0.996175 -0.0192647 0)
(0.995849 -0.0189064 0)
(0.995534 -0.0185303 0)
(0.995231 -0.0181393 0)
(0.994939 -0.0177363 0)
(0.99466 -0.0173243 0)
(0.994393 -0.0169056 0)
(0.994139 -0.0164828 0)
(0.993898 -0.0160581 0)
(0.993671 -0.0156333 0)
(0.993458 -0.0152103 0)
(0.993258 -0.0147905 0)
(0.993071 -0.0143752 0)
(0.992896 -0.0139655 0)
(0.99273 -0.0135626 0)
(0.992573 -0.0131673 0)
(0.992423 -0.0127805 0)
(0.99228 -0.012403 0)
(0.992145 -0.0120353 0)
(0.992017 -0.011678 0)
(0.991897 -0.0113315 0)
(0.991785 -0.0109958 0)
(0.99168 -0.0106714 0)
(0.991583 -0.0103582 0)
(0.991492 -0.0100564 0)
(0.991408 -0.00976587 0)
(0.99133 -0.00948666 0)
(0.991258 -0.00921872 0)
(0.991191 -0.00896202 0)
(1.00315 -0.000521424 0)
(1.00317 -0.00181625 0)
(1.00323 -0.00289722 0)
(1.00328 -0.00405849 0)
(1.00336 -0.00517222 0)
(1.00344 -0.00627848 0)
(1.00353 -0.00737956 0)
(1.00363 -0.00847484 0)
(1.00372 -0.00956545 0)
(1.00381 -0.0106505 0)
(1.00389 -0.0117281 0)
(1.00396 -0.0127955 0)
(1.00401 -0.0138493 0)
(1.00404 -0.0148854 0)
(1.00405 -0.0158993 0)
(1.00404 -0.0168862 0)
(1.00399 -0.0178409 0)
(1.00391 -0.0187584 0)
(1.0038 -0.0196336 0)
(1.00365 -0.0204615 0)
(1.00347 -0.0212375 0)
(1.00325 -0.0219574 0)
(1.003 -0.0226175 0)
(1.00271 -0.0232146 0)
(1.00238 -0.0237462 0)
(1.00203 -0.0242104 0)
(1.00165 -0.024606 0)
(1.00124 -0.0249327 0)
(1.00081 -0.0251906 0)
(1.00036 -0.0253806 0)
(0.999888 -0.0255044 0)
(0.999407 -0.0255639 0)
(0.998917 -0.0255617 0)
(0.99842 -0.0255008 0)
(0.99792 -0.0253846 0)
(0.99742 -0.0252167 0)
(0.996924 -0.025001 0)
(0.996432 -0.0247415 0)
(0.995949 -0.0244423 0)
(0.995475 -0.0241075 0)
(0.995012 -0.0237411 0)
(0.994563 -0.0233472 0)
(0.994128 -0.0229296 0)
(0.993707 -0.022492 0)
(0.993303 -0.0220379 0)
(0.992915 -0.0215705 0)
(0.992544 -0.0210927 0)
(0.992189 -0.0206075 0)
(0.991851 -0.0201175 0)
(0.991528 -0.0196249 0)
(0.99122 -0.0191322 0)
(0.990927 -0.0186414 0)
(0.990648 -0.0181544 0)
(0.990385 -0.017673 0)
(0.990139 -0.0171986 0)
(0.989909 -0.0167325 0)
(0.989695 -0.0162756 0)
(0.989498 -0.0158289 0)
(0.989314 -0.015393 0)
(0.989144 -0.0149685 0)
(0.988985 -0.014556 0)
(0.988837 -0.0141559 0)
(0.988698 -0.0137685 0)
(0.988568 -0.0133941 0)
(0.988447 -0.0130329 0)
(0.988333 -0.012685 0)
(0.988227 -0.0123503 0)
(0.988128 -0.0120289 0)
(0.988035 -0.0117208 0)
(1.00398 -0.000589787 0)
(1.00401 -0.00204556 0)
(1.00407 -0.00326593 0)
(1.00415 -0.00457725 0)
(1.00425 -0.00583456 0)
(1.00436 -0.00708717 0)
(1.00449 -0.00833547 0)
(1.00461 -0.00957969 0)
(1.00474 -0.0108216 0)
(1.00486 -0.0120603 0)
(1.00498 -0.0132941 0)
(1.00508 -0.0145201 0)
(1.00516 -0.0157348 0)
(1.00521 -0.0169338 0)
(1.00524 -0.0181121 0)
(1.00524 -0.0192645 0)
(1.0052 -0.0203852 0)
(1.00512 -0.0214684 0)
(1.00499 -0.0225081 0)
(1.00483 -0.0234987 0)
(1.00461 -0.0244345 0)
(1.00435 -0.0253104 0)
(1.00405 -0.0261218 0)
(1.00369 -0.0268644 0)
(1.0033 -0.0275348 0)
(1.00286 -0.0281303 0)
(1.00238 -0.0286489 0)
(1.00187 -0.0290894 0)
(1.00132 -0.0294513 0)
(1.00075 -0.0297351 0)
(1.00015 -0.0299419 0)
(0.999538 -0.0300733 0)
(0.998907 -0.0301319 0)
(0.998267 -0.0301206 0)
(0.99762 -0.0300429 0)
(0.996972 -0.0299026 0)
(0.996325 -0.0297039 0)
(0.995684 -0.0294511 0)
(0.995051 -0.0291489 0)
(0.994429 -0.0288016 0)
(0.993821 -0.0284141 0)
(0.993229 -0.0279907 0)
(0.992655 -0.0275361 0)
(0.992099 -0.0270546 0)
(0.991563 -0.0265504 0)
(0.991048 -0.0260276 0)
(0.990555 -0.0254902 0)
(0.990084 -0.0249418 0)
(0.989635 -0.0243859 0)
(0.989209 -0.0238256 0)
(0.988807 -0.0232636 0)
(0.988428 -0.0227024 0)
(0.988072 -0.022144 0)
(0.987736 -0.0215905 0)
(0.987419 -0.0210435 0)
(0.987119 -0.0205045 0)
(0.986833 -0.0199751 0)
(0.986563 -0.0194564 0)
(0.986307 -0.0189495 0)
(0.986066 -0.0184554 0)
(0.985839 -0.0179748 0)
(0.985627 -0.0175082 0)
(0.985429 -0.017056 0)
(0.985244 -0.0166186 0)
(0.985073 -0.0161961 0)
(0.984913 -0.0157887 0)
(0.984764 -0.0153965 0)
(0.984625 -0.0150195 0)
(0.984497 -0.0146578 0)
(1.00487 -0.000653284 0)
(1.0049 -0.00225547 0)
(1.00498 -0.00360267 0)
(1.00508 -0.00505143 0)
(1.00521 -0.00644039 0)
(1.00535 -0.00782785 0)
(1.00551 -0.0092122 0)
(1.00567 -0.0105948 0)
(1.00584 -0.0119778 0)
(1.006 -0.0133607 0)
(1.00615 -0.0147418 0)
(1.00629 -0.0161186 0)
(1.00641 -0.0174872 0)
(1.00649 -0.0188431 0)
(1.00655 -0.0201813 0)
(1.00656 -0.0214958 0)
(1.00653 -0.0227806 0)
(1.00646 -0.0240291 0)
(1.00633 -0.0252348 0)
(1.00615 -0.0263911 0)
(1.00591 -0.0274915 0)
(1.00561 -0.0285299 0)
(1.00526 -0.0295007 0)
(1.00484 -0.0303986 0)
(1.00437 -0.0312192 0)
(1.00385 -0.0319586 0)
(1.00328 -0.0326138 0)
(1.00266 -0.0331828 0)
(1.002 -0.0336642 0)
(1.0013 -0.0340576 0)
(1.00057 -0.0343634 0)
(0.999808 -0.0345831 0)
(0.999028 -0.0347185 0)
(0.998232 -0.0347725 0)
(0.997425 -0.0347484 0)
(0.996613 -0.0346501 0)
(0.995801 -0.034482 0)
(0.994993 -0.0342487 0)
(0.994193 -0.0339553 0)
(0.993405 -0.0336069 0)
(0.992632 -0.0332089 0)
(0.991877 -0.0327665 0)
(0.991142 -0.0322849 0)
(0.99043 -0.0317694 0)
(0.989743 -0.0312248 0)
(0.98908 -0.0306557 0)
(0.988444 -0.0300666 0)
(0.987834 -0.0294614 0)
(0.987251 -0.028844 0)
(0.986695 -0.0282179 0)
(0.986164 -0.0275866 0)
(0.985658 -0.026953 0)
(0.985178 -0.0263202 0)
(0.984722 -0.0256909 0)
(0.984293 -0.0250676 0)
(0.98389 -0.0244521 0)
(0.983514 -0.0238462 0)
(0.983164 -0.0232514 0)
(0.982838 -0.0226689 0)
(0.982534 -0.0220998 0)
(0.982249 -0.0215451 0)
(0.981983 -0.0210055 0)
(0.981733 -0.0204817 0)
(0.9815 -0.0199744 0)
(0.981281 -0.0194838 0)
(0.981076 -0.0190102 0)
(0.980885 -0.0185539 0)
(0.980706 -0.018115 0)
(0.980539 -0.0176936 0)
(1.00579 -0.000711315 0)
(1.00584 -0.0024451 0)
(1.00593 -0.00390685 0)
(1.00605 -0.00548009 0)
(1.00621 -0.00698828 0)
(1.00638 -0.00849851 0)
(1.00658 -0.0100071 0)
(1.00678 -0.0115165 0)
(1.00699 -0.0130295 0)
(1.0072 -0.014546 0)
(1.0074 -0.0160644 0)
(1.00758 -0.0175823 0)
(1.00773 -0.0190962 0)
(1.00786 -0.0206014 0)
(1.00794 -0.0220926 0)
(1.00799 -0.0235638 0)
(1.00798 -0.0250084 0)
(1.00791 -0.0264196 0)
(1.00779 -0.0277901 0)
(1.0076 -0.0291126 0)
(1.00734 -0.0303798 0)
(1.00702 -0.0315848 0)
(1.00662 -0.0327208 0)
(1.00616 -0.0337816 0)
(1.00562 -0.0347615 0)
(1.00502 -0.0356556 0)
(1.00435 -0.0364597 0)
(1.00363 -0.0371706 0)
(1.00285 -0.0377859 0)
(1.00202 -0.0383043 0)
(1.00115 -0.0387254 0)
(1.00024 -0.0390496 0)
(0.999302 -0.0392786 0)
(0.99834 -0.0394144 0)
(0.997362 -0.0394602 0)
(0.996373 -0.0394198 0)
(0.99538 -0.0392975 0)
(0.994388 -0.0390982 0)
(0.993403 -0.038827 0)
(0.99243 -0.0384894 0)
(0.991473 -0.0380912 0)
(0.990535 -0.0376381 0)
(0.989621 -0.0371358 0)
(0.988733 -0.03659 0)
(0.987873 -0.0360063 0)
(0.987043 -0.0353903 0)
(0.986245 -0.0347473 0)
(0.985479 -0.0340825 0)
(0.984748 -0.0334008 0)
(0.98405 -0.0327068 0)
(0.983389 -0.0320046 0)
(0.982763 -0.031298 0)
(0.982172 -0.0305901 0)
(0.981614 -0.029884 0)
(0.981086 -0.0291821 0)
(0.980586 -0.028487 0)
(0.980111 -0.027801 0)
(0.979661 -0.0271261 0)
(0.979236 -0.026464 0)
(0.978834 -0.0258164 0)
(0.978457 -0.0251844 0)
(0.978103 -0.0245691 0)
(0.977772 -0.0239712 0)
(0.977464 -0.0233915 0)
(0.977175 -0.0228303 0)
(0.976907 -0.022288 0)
(0.976656 -0.0217649 0)
(0.976423 -0.0212612 0)
(0.976205 -0.0207771 0)
(1.00674 -0.000763734 0)
(1.00679 -0.00261493 0)
(1.0069 -0.0041798 0)
(1.00705 -0.00586499 0)
(1.00723 -0.00748031 0)
(1.00745 -0.00910145 0)
(1.00768 -0.0107226 0)
(1.00793 -0.0123473 0)
(1.00819 -0.0139791 0)
(1.00844 -0.015618 0)
(1.00869 -0.0172631 0)
(1.00892 -0.0189122 0)
(1.00912 -0.0205617 0)
(1.00929 -0.0222074 0)
(1.00942 -0.0238438 0)
(1.00949 -0.0254648 0)
(1.00951 -0.0270637 0)
(1.00947 -0.0286332 0)
(1.00936 -0.0301657 0)
(1.00917 -0.0316532 0)
(1.00891 -0.0330879 0)
(1.00856 -0.0344618 0)
(1.00814 -0.0357674 0)
(1.00762 -0.0369972 0)
(1.00703 -0.0381446 0)
(1.00635 -0.0392033 0)
(1.0056 -0.040168 0)
(1.00477 -0.0410341 0)
(1.00388 -0.0417982 0)
(1.00292 -0.0424577 0)
(1.00191 -0.0430111 0)
(1.00085 -0.0434578 0)
(0.999746 -0.0437985 0)
(0.998611 -0.0440347 0)
(0.997451 -0.0441688 0)
(0.996273 -0.0442044 0)
(0.995086 -0.0441454 0)
(0.993896 -0.0439966 0)
(0.99271 -0.0437634 0)
(0.991534 -0.0434514 0)
(0.990373 -0.043067 0)
(0.989234 -0.0426163 0)
(0.988119 -0.0421059 0)
(0.987033 -0.0415423 0)
(0.98598 -0.0409321 0)
(0.98496 -0.0402814 0)
(0.983978 -0.0395962 0)
(0.983033 -0.0388822 0)
(0.982127 -0.0381445 0)
(0.98126 -0.0373883 0)
(0.980432 -0.0366181 0)
(0.979641 -0.0358385 0)
(0.978887 -0.0350537 0)
(0.97817 -0.0342678 0)
(0.977493 -0.0334844 0)
(0.976855 -0.0327066 0)
(0.976257 -0.0319371 0)
(0.975698 -0.0311782 0)
(0.975175 -0.0304319 0)
(0.974685 -0.0296999 0)
(0.974227 -0.0289839 0)
(0.973797 -0.0282852 0)
(0.973394 -0.027605 0)
(0.973016 -0.0269444 0)
(0.972662 -0.026304 0)
(0.972331 -0.0256845 0)
(0.97202 -0.0250864 0)
(0.97173 -0.0245099 0)
(0.971459 -0.0239554 0)
(1.0077 -0.000810773 0)
(1.00776 -0.00276618 0)
(1.00789 -0.00442355 0)
(1.00806 -0.00620889 0)
(1.00828 -0.00791995 0)
(1.00853 -0.00964075 0)
(1.00881 -0.0113632 0)
(1.0091 -0.0130922 0)
(1.00941 -0.0148317 0)
(1.00972 -0.0165823 0)
(1.01001 -0.0183435 0)
(1.0103 -0.0201134 0)
(1.01055 -0.0218889 0)
(1.01077 -0.0236659 0)
(1.01094 -0.025439 0)
(1.01106 -0.0272023 0)
(1.01112 -0.0289489 0)
(1.01111 -0.0306715 0)
(1.01102 -0.0323622 0)
(1.01085 -0.0340125 0)
(1.01059 -0.0356141 0)
(1.01023 -0.0371583 0)
(1.00978 -0.0386367 0)
(1.00924 -0.040041 0)
(1.00859 -0.0413633 0)
(1.00785 -0.0425962 0)
(1.00702 -0.0437332 0)
(1.0061 -0.0447682 0)
(1.00509 -0.0456965 0)
(1.00401 -0.046514 0)
(1.00286 -0.0472179 0)
(1.00164 -0.0478064 0)
(1.00037 -0.048279 0)
(0.999062 -0.0486362 0)
(0.997714 -0.0488797 0)
(0.996339 -0.0490121 0)
(0.994946 -0.0490369 0)
(0.993545 -0.0489587 0)
(0.992143 -0.0487825 0)
(0.990748 -0.0485142 0)
(0.989367 -0.0481601 0)
(0.988006 -0.0477266 0)
(0.986671 -0.0472207 0)
(0.985367 -0.0466492 0)
(0.984099 -0.0460192 0)
(0.982869 -0.0453376 0)
(0.981681 -0.0446114 0)
(0.980537 -0.0438475 0)
(0.979439 -0.0430525 0)
(0.978389 -0.0422327 0)
(0.977387 -0.0413941 0)
(0.976435 -0.0405421 0)
(0.975534 -0.0396814 0)
(0.97468 -0.0388163 0)
(0.973872 -0.0379505 0)
(0.973105 -0.0370878 0)
(0.972377 -0.0362316 0)
(0.971686 -0.0353849 0)
(0.971031 -0.0345507 0)
(0.970413 -0.0337313 0)
(0.969832 -0.0329287 0)
(0.969286 -0.0321447 0)
(0.968774 -0.0313805 0)
(0.968296 -0.0306374 0)
(0.967849 -0.0299162 0)
(0.967432 -0.0292176 0)
(0.967042 -0.0285423 0)
(0.966678 -0.0278908 0)
(0.966339 -0.0272633 0)
(1.00865 -0.000852867 0)
(1.00872 -0.0029004 0)
(1.00887 -0.00464038 0)
(1.00907 -0.00651492 0)
(1.00932 -0.0083112 0)
(1.00961 -0.0101211 0)
(1.00993 -0.0119344 0)
(1.01028 -0.0137572 0)
(1.01064 -0.0155939 0)
(1.011 -0.0174459 0)
(1.01135 -0.0193129 0)
(1.01169 -0.0211936 0)
(1.01201 -0.0230854 0)
(1.01228 -0.0249844 0)
(1.01251 -0.0268856 0)
(1.01268 -0.0287833 0)
(1.01278 -0.0306707 0)
(1.01281 -0.0325405 0)
(1.01276 -0.0343847 0)
(1.01261 -0.0361948 0)
(1.01236 -0.0379619 0)
(1.01201 -0.0396769 0)
(1.01155 -0.0413306 0)
(1.01098 -0.0429139 0)
(1.0103 -0.044418 0)
(1.0095 -0.0458342 0)
(1.0086 -0.0471547 0)
(1.0076 -0.0483722 0)
(1.00649 -0.0494802 0)
(1.00529 -0.0504733 0)
(1.004 -0.0513471 0)
(1.00264 -0.0520984 0)
(1.00121 -0.0527252 0)
(0.999714 -0.0532266 0)
(0.998174 -0.0536031 0)
(0.996596 -0.0538564 0)
(0.994991 -0.0539891 0)
(0.993368 -0.0540051 0)
(0.991737 -0.0539092 0)
(0.990108 -0.0537068 0)
(0.98849 -0.0534042 0)
(0.986889 -0.0530084 0)
(0.985314 -0.0525267 0)
(0.983771 -0.0519666 0)
(0.982266 -0.0513362 0)
(0.980802 -0.0506432 0)
(0.979385 -0.0498952 0)
(0.978016 -0.0490998 0)
(0.976699 -0.0482639 0)
(0.975435 -0.0473941 0)
(0.974223 -0.0464969 0)
(0.973062 -0.0455782 0)
(0.971954 -0.0446441 0)
(0.970897 -0.0437003 0)
(0.969894 -0.042752 0)
(0.968946 -0.041804 0)
(0.968054 -0.0408603 0)
(0.967218 -0.0399244 0)
(0.966434 -0.0389994 0)
(0.965698 -0.038088 0)
(0.965008 -0.0371927 0)
(0.96436 -0.0363157 0)
(0.963752 -0.035459 0)
(0.96318 -0.0346243 0)
(0.962644 -0.0338129 0)
(0.962142 -0.0330259 0)
(0.961671 -0.0322642 0)
(0.961231 -0.0315286 0)
(0.960819 -0.0308196 0)
(1.0096 -0.000890504 0)
(1.00969 -0.00301923 0)
(1.00985 -0.00483265 0)
(1.01007 -0.00678636 0)
(1.01036 -0.00865823 0)
(1.01069 -0.0105476 0)
(1.01106 -0.012442 0)
(1.01145 -0.0143487 0)
(1.01186 -0.0162729 0)
(1.01228 -0.0182164 0)
(1.0127 -0.0201795 0)
(1.0131 -0.0221614 0)
(1.01347 -0.0241601 0)
(1.01381 -0.026172 0)
(1.0141 -0.0281926 0)
(1.01433 -0.0302166 0)
(1.01449 -0.0322376 0)
(1.01456 -0.0342483 0)
(1.01455 -0.0362409 0)
(1.01443 -0.0382069 0)
(1.01421 -0.0401372 0)
(1.01387 -0.0420224 0)
(1.01342 -0.0438529 0)
(1.01284 -0.0456189 0)
(1.01214 -0.0473105 0)
(1.0113 -0.0489183 0)
(1.01035 -0.050433 0)
(1.00927 -0.0518461 0)
(1.00808 -0.0531494 0)
(1.00677 -0.0543361 0)
(1.00536 -0.0554 0)
(1.00385 -0.0563362 0)
(1.00226 -0.0571409 0)
(1.00059 -0.0578118 0)
(0.998857 -0.0583477 0)
(0.997074 -0.0587489 0)
(0.99525 -0.0590169 0)
(0.993398 -0.0591546 0)
(0.991529 -0.0591658 0)
(0.989653 -0.0590557 0)
(0.987783 -0.0588301 0)
(0.985926 -0.0584957 0)
(0.984093 -0.0580598 0)
(0.98229 -0.0575302 0)
(0.980526 -0.0569148 0)
(0.978807 -0.0562218 0)
(0.977138 -0.0554597 0)
(0.975523 -0.054637 0)
(0.973965 -0.0537622 0)
(0.972468 -0.0528437 0)
(0.971035 -0.0518896 0)
(0.969667 -0.0509074 0)
(0.968366 -0.0499039 0)
(0.967132 -0.0488853 0)
(0.96596 -0.0478569 0)
(0.964847 -0.046824 0)
(0.963789 -0.0457915 0)
(0.962783 -0.044764 0)
(0.961829 -0.0437459 0)
(0.960926 -0.0427407 0)
(0.960075 -0.0417517 0)
(0.959276 -0.0407815 0)
(0.958526 -0.0398324 0)
(0.957823 -0.0389062 0)
(0.957166 -0.0380045 0)
(0.956551 -0.0371287 0)
(0.955976 -0.0362798 0)
(0.95544 -0.0354588 0)
(0.954939 -0.0346664 0)
(1.01054 -0.000924151 0)
(1.01063 -0.00312426 0)
(1.01082 -0.00500277 0)
(1.01107 -0.0070266 0)
(1.01138 -0.00896533 0)
(1.01175 -0.0109253 0)
(1.01217 -0.0128919 0)
(1.01262 -0.0148736 0)
(1.01308 -0.0168762 0)
(1.01356 -0.018902 0)
(1.01404 -0.020952 0)
(1.0145 -0.0230261 0)
(1.01494 -0.0251225 0)
(1.01535 -0.0272385 0)
(1.0157 -0.0293701 0)
(1.01599 -0.0315124 0)
(1.01621 -0.0336594 0)
(1.01635 -0.0358043 0)
(1.01638 -0.0379395 0)
(1.01631 -0.0400568 0)
(1.01613 -0.0421471 0)
(1.01582 -0.044201 0)
(1.01538 -0.0462085 0)
(1.01481 -0.0481594 0)
(1.0141 -0.0500432 0)
(1.01325 -0.0518495 0)
(1.01225 -0.0535681 0)
(1.01112 -0.055189 0)
(1.00985 -0.0567027 0)
(1.00845 -0.0581006 0)
(1.00692 -0.0593747 0)
(1.00528 -0.0605183 0)
(1.00354 -0.0615257 0)
(1.0017 -0.0623926 0)
(0.999786 -0.0631161 0)
(0.997799 -0.0636947 0)
(0.995756 -0.0641282 0)
(0.99367 -0.0644182 0)
(0.991555 -0.0645675 0)
(0.989424 -0.06458 0)
(0.987288 -0.0644611 0)
(0.98516 -0.064217 0)
(0.983051 -0.063855 0)
(0.980969 -0.0633831 0)
(0.978925 -0.0628101 0)
(0.976927 -0.0621448 0)
(0.97498 -0.0613966 0)
(0.973091 -0.0605747 0)
(0.971265 -0.059688 0)
(0.969504 -0.0587449 0)
(0.96781 -0.0577539 0)
(0.966184 -0.0567227 0)
(0.964626 -0.0556593 0)
(0.963135 -0.0545715 0)
(0.961715 -0.0534669 0)
(0.960369 -0.0523523 0)
(0.959098 -0.0512337 0)
(0.957903 -0.0501163 0)
(0.95678 -0.0490047 0)
(0.955725 -0.047903 0)
(0.954733 -0.046815 0)
(0.9538 -0.0457442 0)
(0.952922 -0.0446937 0)
(0.952097 -0.0436662 0)
(0.951322 -0.042664 0)
(0.950595 -0.0416889 0)
(0.949914 -0.0407425 0)
(0.949276 -0.0398261 0)
(0.94868 -0.0389408 0)
(1.01146 -0.000954234 0)
(1.01156 -0.003217 0)
(1.01176 -0.00515315 0)
(1.01204 -0.00723899 0)
(1.01239 -0.00923676 0)
(1.0128 -0.0112594 0)
(1.01326 -0.0132902 0)
(1.01376 -0.0153387 0)
(1.01429 -0.0174114 0)
(1.01483 -0.0195111 0)
(1.01537 -0.0216395 0)
(1.0159 -0.0237971 0)
(1.01641 -0.0259828 0)
(1.01688 -0.0281944 0)
(1.0173 -0.0304286 0)
(1.01767 -0.032681 0)
(1.01795 -0.0349464 0)
(1.01815 -0.0372184 0)
(1.01825 -0.03949 0)
(1.01824 -0.0417532 0)
(1.0181 -0.0439993 0)
(1.01784 -0.0462191 0)
(1.01743 -0.0484025 0)
(1.01688 -0.0505391 0)
(1.01617 -0.052618 0)
(1.01531 -0.0546282 0)
(1.0143 -0.0565586 0)
(1.01313 -0.0583979 0)
(1.0118 -0.0601355 0)
(1.01032 -0.0617609 0)
(1.0087 -0.0632645 0)
(1.00695 -0.0646376 0)
(1.00507 -0.0658725 0)
(1.00307 -0.0669626 0)
(1.00098 -0.0679029 0)
(0.998794 -0.0686899 0)
(0.996535 -0.0693215 0)
(0.994216 -0.0697972 0)
(0.991853 -0.0701183 0)
(0.989459 -0.0702873 0)
(0.98705 -0.0703085 0)
(0.984638 -0.0701872 0)
(0.982237 -0.0699301 0)
(0.979859 -0.0695446 0)
(0.977516 -0.0690391 0)
(0.975216 -0.0684224 0)
(0.97297 -0.0677038 0)
(0.970784 -0.0668933 0)
(0.968665 -0.066001 0)
(0.966618 -0.0650373 0)
(0.964649 -0.0640128 0)
(0.96276 -0.0629376 0)
(0.960957 -0.0618211 0)
(0.95924 -0.060672 0)
(0.957607 -0.0594979 0)
(0.956053 -0.0583058 0)
(0.954573 -0.0571027 0)
(0.953163 -0.0558952 0)
(0.951824 -0.0546896 0)
(0.950554 -0.0534914 0)
(0.949356 -0.0523056 0)
(0.948228 -0.0511361 0)
(0.947168 -0.0499865 0)
(0.946174 -0.0488599 0)
(0.945243 -0.0477588 0)
(0.944372 -0.0466854 0)
(0.943557 -0.0456417 0)
(0.942794 -0.0446294 0)
(0.942082 -0.0436499 0)
(1.01235 -0.000981138 0)
(1.01247 -0.00329885 0)
(1.01269 -0.00528609 0)
(1.01299 -0.00742678 0)
(1.01338 -0.00947663 0)
(1.01383 -0.0115549 0)
(1.01434 -0.0136426 0)
(1.01489 -0.0157505 0)
(1.01547 -0.0178857 0)
(1.01607 -0.0200516 0)
(1.01667 -0.0222506 0)
(1.01727 -0.0244837 0)
(1.01785 -0.0267506 0)
(1.0184 -0.0290496 0)
(1.0189 -0.0313783 0)
(1.01933 -0.0337329 0)
(1.01969 -0.0361089 0)
(1.01996 -0.0385006 0)
(1.02013 -0.0409016 0)
(1.02019 -0.0433046 0)
(1.02011 -0.0457013 0)
(1.0199 -0.0480828 0)
(1.01954 -0.0504395 0)
(1.01902 -0.0527608 0)
(1.01835 -0.0550358 0)
(1.0175 -0.0572531 0)
(1.01648 -0.0594009 0)
(1.01529 -0.0614671 0)
(1.01393 -0.0634398 0)
(1.0124 -0.0653072 0)
(1.0107 -0.0670579 0)
(1.00885 -0.0686812 0)
(1.00685 -0.0701672 0)
(1.00471 -0.0715072 0)
(1.00245 -0.0726938 0)
(1.00008 -0.0737209 0)
(0.997614 -0.0745842 0)
(0.995067 -0.075281 0)
(0.992456 -0.0758102 0)
(0.989798 -0.0761727 0)
(0.987109 -0.076371 0)
(0.984404 -0.0764093 0)
(0.9817 -0.0762932 0)
(0.979009 -0.0760297 0)
(0.976347 -0.0756271 0)
(0.973725 -0.0750947 0)
(0.971153 -0.0744427 0)
(0.968643 -0.0736816 0)
(0.966201 -0.0728222 0)
(0.963835 -0.0718749 0)
(0.96155 -0.07085 0)
(0.959347 -0.0697575 0)
(0.957229 -0.0686072 0)
(0.955196 -0.0674094 0)
(0.953251 -0.0661742 0)
(0.9514 -0.0649113 0)
(0.949647 -0.0636296 0)
(0.947994 -0.0623368 0)
(0.946437 -0.0610394 0)
(0.944972 -0.0597436 0)
(0.943592 -0.0584551 0)
(0.942292 -0.0571791 0)
(0.941067 -0.0559205 0)
(0.939915 -0.0546834 0)
(0.938832 -0.0534715 0)
(0.937814 -0.0522879 0)
(0.936861 -0.051135 0)
(0.935967 -0.0500152 0)
(0.935131 -0.0489303 0)
(1.01322 -0.00100521 0)
(1.01335 -0.00337111 0)
(1.01359 -0.00540369 0)
(1.01392 -0.00759291 0)
(1.01434 -0.00968868 0)
(1.01483 -0.0118162 0)
(1.01538 -0.0139544 0)
(1.01598 -0.0161151 0)
(1.01662 -0.018306 0)
(1.01728 -0.0205311 0)
(1.01795 -0.0227934 0)
(1.01862 -0.0250945 0)
(1.01927 -0.0274349 0)
(1.0199 -0.0298136 0)
(1.02047 -0.0322288 0)
(1.02098 -0.0346777 0)
(1.02142 -0.0371564 0)
(1.02177 -0.0396601 0)
(1.02202 -0.0421831 0)
(1.02215 -0.0447188 0)
(1.02214 -0.0472597 0)
(1.022 -0.0497976 0)
(1.0217 -0.0523231 0)
(1.02124 -0.0548262 0)
(1.0206 -0.0572962 0)
(1.01978 -0.0597213 0)
(1.01878 -0.0620897 0)
(1.0176 -0.0643885 0)
(1.01622 -0.0666049 0)
(1.01465 -0.068726 0)
(1.01291 -0.0707388 0)
(1.01098 -0.0726307 0)
(1.00888 -0.0743898 0)
(1.00662 -0.076005 0)
(1.00422 -0.0774662 0)
(1.00167 -0.0787649 0)
(0.999013 -0.079894 0)
(0.996248 -0.080848 0)
(0.993397 -0.0816235 0)
(0.990477 -0.0822188 0)
(0.987507 -0.0826344 0)
(0.984504 -0.0828723 0)
(0.981486 -0.0829368 0)
(0.978471 -0.0828333 0)
(0.975474 -0.0825691 0)
(0.97251 -0.0821525 0)
(0.969593 -0.0815928 0)
(0.966735 -0.0809003 0)
(0.963947 -0.0800862 0)
(0.961237 -0.0791624 0)
(0.958615 -0.0781418 0)
(0.956088 -0.0770372 0)
(0.953663 -0.0758613 0)
(0.951344 -0.0746258 0)
(0.949132 -0.0733413 0)
(0.947024 -0.0720174 0)
(0.945011 -0.0706632 0)
(0.943091 -0.069288 0)
(0.941261 -0.0679007 0)
(0.939524 -0.0665097 0)
(0.937881 -0.0651221 0)
(0.936332 -0.0637442 0)
(0.934876 -0.0623812 0)
(0.933508 -0.0610381 0)
(0.932226 -0.0597189 0)
(0.931025 -0.0584273 0)
(0.9299 -0.0571663 0)
(0.928848 -0.055939 0)
(0.927864 -0.0547476 0)
(1.01407 -0.00102676 0)
(1.0142 -0.00343488 0)
(1.01446 -0.00550773 0)
(1.01481 -0.00773988 0)
(1.01527 -0.00987609 0)
(1.0158 -0.0120472 0)
(1.01639 -0.0142301 0)
(1.01705 -0.0164376 0)
(1.01774 -0.018678 0)
(1.01846 -0.0209558 0)
(1.0192 -0.0232747 0)
(1.01994 -0.0256369 0)