/*--------------------------------*- C++ -*----------------------------------*\
  =========                 |
  \\      /  F ield         | OpenFOAM: The Open Source CFD Toolbox
   \\    /   O peration     | Website:  https://openfoam.org
    \\  /    A nd           | Version:  10
     \\/     M anipulation  |
\*---------------------------------------------------------------------------*/
FoamFile
{
    format      ascii;
    class       volVectorField;
    location    "620";
    object      U;
}
// * * * * * * * * * * * * * * * * * * * * * * * * * * * * * * * * * * * * * //

dimensions      [0 1 -1 0 0 0 0];

internalField   nonuniform List<vector> 
66268
(
(1 -3.9986e-05 0)
(1 -0.000146463 0)
(1 -0.000233167 0)
(1 -0.000323532 0)
(1 -0.000411258 0)
(1 -0.000496815 0)
(1 -0.000580723 0)
(1 -0.000662982 0)
(1 -0.000743477 0)
(1 -0.000822067 0)
(1 -0.000898556 0)
(1 -0.000972696 0)
(1 -0.0010442 0)
(1 -0.00111278 0)
(1 -0.00117809 0)
(1 -0.00123983 0)
(1 -0.00129767 0)
(1 -0.00135131 0)
(1 -0.0014005 0)
(1 -0.001445 0)
(1 -0.0014846 0)
(1 -0.00151917 0)
(1 -0.00154861 0)
(1 -0.00157287 0)
(1 -0.00159195 0)
(1 -0.0016059 0)
(1 -0.00161484 0)
(1 -0.00161889 0)
(1 -0.00161826 0)
(1 -0.00161315 0)
(1 -0.00160383 0)
(1 -0.00159058 0)
(1 -0.00157369 0)
(1 -0.0015535 0)
(1 -0.00153032 0)
(1 -0.00150452 0)
(1 -0.00147641 0)
(1 -0.00144635 0)
(0.999999 -0.00141464 0)
(0.999999 -0.00138155 0)
(0.999999 -0.00134731 0)
(0.999998 -0.00131212 0)
(0.999998 -0.00127612 0)
(0.999997 -0.00123944 0)
(0.999995 -0.00120218 0)
(0.999993 -0.00116443 0)
(0.99999 -0.00112625 0)
(0.999985 -0.00108773 0)
(0.999978 -0.00104895 0)
(0.999969 -0.00101003 0)
(0.999958 -0.000971168 0)
(0.999947 -0.000932571 0)
(0.999939 -0.000894477 0)
(0.999933 -0.000857102 0)
(0.999931 -0.000820625 0)
(0.999932 -0.000785179 0)
(0.999936 -0.000750857 0)
(0.999942 -0.000717719 0)
(0.999949 -0.0006858 0)
(0.999956 -0.000655118 0)
(0.999963 -0.000625676 0)
(0.999968 -0.000597465 0)
(0.999973 -0.00057047 0)
(0.999977 -0.000544669 0)
(0.99998 -0.000520033 0)
(0.999982 -0.00049653 0)
(0.999984 -0.000474125 0)
(0.999985 -0.000452815 0)
(0.999986 -0.0004326 0)
(1.00017 -0.000117934 0)
(1.00017 -0.000425124 0)
(1.00017 -0.000674751 0)
(1.00018 -0.000938094 0)
(1.00018 -0.00119289 0)
(1.00018 -0.00144155 0)
(1.00018 -0.00168592 0)
(1.00019 -0.00192583 0)
(1.00019 -0.00216098 0)
(1.00019 -0.00239099 0)
(1.00019 -0.00261531 0)
(1.00019 -0.0028332 0)
(1.00019 -0.00304384 0)
(1.00019 -0.00324632 0)
(1.00019 -0.00343968 0)
(1.00018 -0.00362294 0)
(1.00018 -0.00379516 0)
(1.00017 -0.00395542 0)
(1.00016 -0.00410287 0)
(1.00015 -0.00423678 0)
(1.00014 -0.00435653 0)
(1.00013 -0.00446162 0)
(1.00011 -0.00455171 0)
(1.00009 -0.0046266 0)
(1.00007 -0.00468626 0)
(1.00005 -0.00473079 0)
(1.00003 -0.00476045 0)
(1.00001 -0.00477562 0)
(0.999986 -0.00477682 0)
(0.999962 -0.00476468 0)
(0.999938 -0.00473988 0)
(0.999913 -0.00470323 0)
(0.999888 -0.00465558 0)
(0.999863 -0.0045978 0)
(0.999838 -0.00453074 0)
(0.999813 -0.00445525 0)
(0.999789 -0.00437213 0)
(0.999765 -0.00428219 0)
(0.999742 -0.00418622 0)
(0.999719 -0.00408503 0)
(0.999697 -0.00397946 0)
(0.999675 -0.00387037 0)
(0.999654 -0.00375865 0)
(0.999634 -0.00364515 0)
(0.999614 -0.0035307 0)
(0.999595 -0.00341605 0)
(0.999576 -0.00330188 0)
(0.99956 -0.00318878 0)
(0.999546 -0.00307723 0)
(0.999534 -0.00296758 0)
(0.999524 -0.00286003 0)
(0.999516 -0.00275466 0)
(0.999508 -0.00265147 0)
(0.999499 -0.00255042 0)
(0.999487 -0.00245151 0)
(0.999474 -0.00235479 0)
(0.999459 -0.00226032 0)
(0.999443 -0.00216819 0)
(0.999427 -0.0020785 0)
(0.999412 -0.00199135 0)
(0.999398 -0.00190679 0)
(0.999385 -0.0018249 0)
(0.999373 -0.0017457 0)
(0.999363 -0.00166924 0)
(0.999354 -0.00159552 0)
(0.999346 -0.00152454 0)
(0.999339 -0.0014563 0)
(0.999333 -0.00139078 0)
(0.999328 -0.00132807 0)
(1.00052 -0.000192903 0)
(1.00051 -0.000685769 0)
(1.00052 -0.00108634 0)
(1.00053 -0.00151366 0)
(1.00054 -0.00192552 0)
(1.00054 -0.00232823 0)
(1.00055 -0.00272499 0)
(1.00056 -0.00311531 0)
(1.00057 -0.00349885 0)
(1.00058 -0.00387507 0)
(1.00058 -0.00424307 0)
(1.00059 -0.00460171 0)
(1.00059 -0.00494964 0)
(1.00058 -0.00528539 0)
(1.00058 -0.00560736 0)
(1.00056 -0.00591391 0)
(1.00055 -0.00620341 0)
(1.00053 -0.00647429 0)
(1.0005 -0.00672508 0)
(1.00047 -0.00695445 0)
(1.00043 -0.00716124 0)
(1.00039 -0.00734452 0)
(1.00034 -0.00750358 0)
(1.00029 -0.00763796 0)
(1.00024 -0.00774744 0)
(1.00018 -0.00783206 0)
(1.00012 -0.00789211 0)
(1.00005 -0.00792807 0)
(0.99998 -0.00794069 0)
(0.999909 -0.00793085 0)
(0.999836 -0.00789964 0)
(0.999763 -0.00784824 0)
(0.999689 -0.007778 0)
(0.999615 -0.0076903 0)
(0.999541 -0.00758663 0)
(0.999468 -0.00746847 0)
(0.999396 -0.00733738 0)
(0.999325 -0.00719495 0)
(0.999256 -0.00704274 0)
(0.999188 -0.00688225 0)
(0.999123 -0.00671487 0)
(0.999059 -0.00654183 0)
(0.998998 -0.00636421 0)
(0.998939 -0.00618294 0)
(0.998882 -0.00599886 0)
(0.998828 -0.00581275 0)
(0.998776 -0.00562535 0)
(0.998726 -0.00543741 0)
(0.998677 -0.00524965 0)
(0.998629 -0.00506282 0)
(0.998582 -0.00487765 0)
(0.998537 -0.00469482 0)
(0.998495 -0.00451498 0)
(0.998456 -0.00433864 0)
(0.998421 -0.00416621 0)
(0.998392 -0.00399798 0)
(0.998367 -0.00383416 0)
(0.998345 -0.00367491 0)
(0.998327 -0.00352038 0)
(0.998311 -0.00337067 0)
(0.998296 -0.00322588 0)
(0.998282 -0.00308607 0)
(0.998269 -0.0029513 0)
(0.998256 -0.00282158 0)
(0.998244 -0.00269691 0)
(0.998232 -0.00257725 0)
(0.998221 -0.00246256 0)
(0.998211 -0.00235281 0)
(0.9982 -0.00224796 0)
(1.00098 -0.00026312 0)
(1.00098 -0.000927037 0)
(1.00099 -0.00146904 0)
(1.00101 -0.00205075 0)
(1.00102 -0.0026098 0)
(1.00104 -0.0031582 0)
(1.00106 -0.00369994 0)
(1.00108 -0.00423432 0)
(1.0011 -0.0047611 0)
(1.00111 -0.00527967 0)
(1.00113 -0.0057889 0)
(1.00114 -0.00628729 0)
(1.00114 -0.00677305 0)
(1.00113 -0.00724413 0)
(1.00112 -0.00769834 0)
(1.00111 -0.00813337 0)
(1.00108 -0.00854689 0)
(1.00104 -0.0089366 0)
(1.00099 -0.00930031 0)
(1.00094 -0.00963601 0)
(1.00087 -0.00994189 0)
(1.00079 -0.0102164 0)
(1.0007 -0.0104584 0)
(1.00061 -0.0106669 0)
(1.0005 -0.0108413 0)
(1.00039 -0.0109815 0)
(1.00027 -0.0110875 0)
(1.00015 -0.01116 0)
(1.00002 -0.0111995 0)
(0.99988 -0.0112073 0)
(0.999742 -0.0111847 0)
(0.999601 -0.0111331 0)
(0.999459 -0.0110543 0)
(0.999317 -0.0109502 0)
(0.999175 -0.0108228 0)
(0.999035 -0.010674 0)
(0.998897 -0.0105058 0)
(0.998761 -0.0103203 0)
(0.998629 -0.0101192 0)
(0.998501 -0.00990453 0)
(0.998376 -0.009678 0)
(0.998256 -0.00944143 0)
(0.998141 -0.00919662 0)
(0.998031 -0.00894537 0)
(0.997925 -0.00868945 0)
(0.997825 -0.00843053 0)
(0.99773 -0.00817016 0)
(0.99764 -0.00790975 0)
(0.997558 -0.00765047 0)
(0.997481 -0.00739333 0)
(0.997412 -0.00713911 0)
(0.997348 -0.00688842 0)
(0.997287 -0.00664177 0)
(0.997229 -0.00639959 0)
(0.997172 -0.00616233 0)
(0.997116 -0.00593041 0)
(0.997059 -0.00570423 0)
(0.997004 -0.00548412 0)
(0.99695 -0.00527034 0)
(0.996899 -0.00506309 0)
(0.996852 -0.00486249 0)
(0.996807 -0.00466862 0)
(0.996767 -0.00448151 0)
(0.996729 -0.00430117 0)
(0.996695 -0.00412759 0)
(0.996663 -0.00396072 0)
(0.996634 -0.0038005 0)
(0.996607 -0.00364689 0)
(0.996583 -0.00349988 0)
(1.00152 -0.0003277 0)
(1.00153 -0.00114932 0)
(1.00155 -0.00182518 0)
(1.00157 -0.00255155 0)
(1.0016 -0.00324843 0)
(1.00163 -0.00393483 0)
(1.00166 -0.00461472 0)
(1.0017 -0.00528737 0)
(1.00173 -0.00595284 0)
(1.00176 -0.0066106 0)
(1.00178 -0.00725934 0)
(1.0018 -0.0078973 0)
(1.00181 -0.00852231 0)
(1.00181 -0.00913187 0)
(1.0018 -0.00972318 0)
(1.00177 -0.0102933 0)
(1.00173 -0.0108392 0)
(1.00168 -0.0113577 0)
(1.00161 -0.0118461 0)
(1.00153 -0.0123013 0)
(1.00143 -0.0127209 0)
(1.00131 -0.0131026 0)
(1.00118 -0.0134445 0)
(1.00103 -0.013745 0)
(1.00087 -0.0140032 0)
(1.0007 -0.0142182 0)
(1.00051 -0.01439 0)
(1.00032 -0.0145188 0)
(1.00011 -0.0146052 0)
(0.999899 -0.0146503 0)
(0.999681 -0.0146554 0)
(0.999458 -0.0146224 0)
(0.999233 -0.0145531 0)
(0.999006 -0.0144498 0)
(0.99878 -0.0143147 0)
(0.998555 -0.0141504 0)
(0.998333 -0.0139593 0)
(0.998114 -0.0137442 0)
(0.9979 -0.0135077 0)
(0.997692 -0.0132525 0)
(0.997489 -0.0129812 0)
(0.997292 -0.0126964 0)
(0.997102 -0.0124004 0)
(0.996919 -0.0120954 0)
(0.996743 -0.0117831 0)
(0.996574 -0.0114655 0)
(0.996413 -0.011144 0)
(0.996259 -0.0108202 0)
(0.996111 -0.0104955 0)
(0.995969 -0.0101712 0)
(0.995833 -0.00984877 0)
(0.995702 -0.00952938 0)
(0.995577 -0.00921422 0)
(0.99546 -0.00890426 0)
(0.995352 -0.00860026 0)
(0.995253 -0.00830279 0)
(0.995163 -0.00801226 0)
(0.995081 -0.00772903 0)
(0.995006 -0.0074534 0)
(0.994937 -0.00718563 0)
(0.994873 -0.00692598 0)
(0.994814 -0.00667463 0)
(0.994758 -0.00643174 0)
(0.994706 -0.00619743 0)
(0.994656 -0.00597173 0)
(0.99461 -0.00575467 0)
(0.994567 -0.00554621 0)
(0.994526 -0.00534632 0)
(0.994489 -0.00515496 0)
(1.00212 -0.00038768 0)
(1.00213 -0.00135616 0)
(1.00216 -0.00215925 0)
(1.0022 -0.00302162 0)
(1.00224 -0.00384849 0)
(1.00228 -0.00466633 0)
(1.00233 -0.00547846 0)
(1.00239 -0.00628434 0)
(1.00244 -0.00708456 0)
(1.00248 -0.0078787 0)
(1.00252 -0.00866542 0)
(1.00256 -0.00944279 0)
(1.00258 -0.0102084 0)
(1.00259 -0.0109593 0)
(1.00258 -0.0116923 0)
(1.00256 -0.0124037 0)
(1.00251 -0.0130899 0)
(1.00245 -0.0137471 0)
(1.00236 -0.0143714 0)
(1.00226 -0.0149593 0)
(1.00212 -0.0155073 0)
(1.00197 -0.0160122 0)
(1.00179 -0.0164715 0)
(1.00159 -0.0168827 0)
(1.00137 -0.017244 0)
(1.00113 -0.0175543 0)
(1.00087 -0.0178127 0)
(1.0006 -0.0180191 0)
(1.00031 -0.0181738 0)
(1 -0.0182776 0)
(0.999693 -0.018332 0)
(0.999374 -0.0183385 0)
(0.99905 -0.0182993 0)
(0.998722 -0.0182169 0)
(0.998393 -0.0180939 0)
(0.998066 -0.0179332 0)
(0.99774 -0.0177378 0)
(0.997419 -0.0175109 0)
(0.997103 -0.0172555 0)
(0.996794 -0.0169747 0)
(0.996493 -0.0166713 0)
(0.996201 -0.0163483 0)
(0.995918 -0.0160085 0)
(0.995646 -0.0156547 0)
(0.995384 -0.0152896 0)
(0.995133 -0.014916 0)
(0.994894 -0.0145363 0)
(0.994668 -0.0141528 0)
(0.994455 -0.0137676 0)
(0.994255 -0.0133825 0)
(0.994069 -0.0129988 0)
(0.993896 -0.0126179 0)
(0.993734 -0.0122408 0)
(0.99358 -0.0118684 0)
(0.993433 -0.0115017 0)
(0.993291 -0.0111417 0)
(0.993153 -0.0107894 0)
(0.993021 -0.0104455 0)
(0.992894 -0.0101105 0)
(0.992775 -0.00978507 0)
(0.992662 -0.00946939 0)
(0.992558 -0.00916372 0)
(0.99246 -0.0088682 0)
(0.99237 -0.00858291 0)
(0.992286 -0.00830788 0)
(0.992209 -0.00804313 0)
(0.992138 -0.0077886 0)
(0.992071 -0.00754427 0)
(0.99201 -0.00731013 0)
(1.00277 -0.000444779 0)
(1.00279 -0.00155154 0)
(1.00283 -0.00247506 0)
(1.00287 -0.00346612 0)
(1.00293 -0.00441643 0)
(1.003 -0.00535988 0)
(1.00307 -0.00629882 0)
(1.00315 -0.00723316 0)
(1.00322 -0.0081641 0)
(1.00329 -0.00909145 0)
(1.00336 -0.0100139 0)
(1.00341 -0.0109296 0)
(1.00345 -0.0118358 0)
(1.00348 -0.0127295 0)
(1.00349 -0.0136069 0)
(1.00347 -0.014464 0)
(1.00343 -0.0152965 0)
(1.00336 -0.0160998 0)
(1.00327 -0.0168694 0)
(1.00314 -0.0176009 0)
(1.00298 -0.0182898 0)
(1.00279 -0.0189322 0)
(1.00257 -0.0195244 0)
(1.00232 -0.0200632 0)
(1.00203 -0.0205459 0)
(1.00172 -0.0209706 0)
(1.00138 -0.0213356 0)
(1.00102 -0.0216403 0)
(1.00064 -0.0218844 0)
(1.00024 -0.0220683 0)
(0.999826 -0.0221931 0)
(0.999397 -0.0222604 0)
(0.99896 -0.0222722 0)
(0.998516 -0.0222309 0)
(0.998069 -0.0221394 0)
(0.997622 -0.0220007 0)
(0.997176 -0.0218182 0)
(0.996735 -0.0215954 0)
(0.996301 -0.0213358 0)
(0.995875 -0.0210432 0)
(0.995458 -0.0207212 0)
(0.995053 -0.0203736 0)
(0.994661 -0.020004 0)
(0.994282 -0.0196156 0)
(0.993916 -0.0192117 0)
(0.993566 -0.0187949 0)
(0.99323 -0.018368 0)
(0.99291 -0.0179333 0)
(0.992603 -0.0174932 0)
(0.992309 -0.0170499 0)
(0.992027 -0.0166057 0)
(0.991756 -0.0161626 0)
(0.991499 -0.0157228 0)
(0.991255 -0.0152879 0)
(0.991028 -0.0148592 0)
(0.990818 -0.0144379 0)
(0.990625 -0.0140248 0)
(0.990447 -0.0136204 0)
(0.990283 -0.0132255 0)
(0.990131 -0.0128405 0)
(0.989989 -0.012466 0)
(0.989856 -0.0121024 0)
(0.989731 -0.0117502 0)
(0.989614 -0.0114097 0)
(0.989504 -0.0110809 0)
(0.989401 -0.0107641 0)
(0.989304 -0.0104592 0)
(0.989214 -0.0101664 0)
(0.98913 -0.0098856 0)
(1.00348 -0.000500119 0)
(1.0035 -0.00173792 0)
(1.00355 -0.00277505 0)
(1.00361 -0.00388848 0)
(1.00369 -0.00495639 0)
(1.00378 -0.00601987 0)
(1.00388 -0.00708022 0)
(1.00398 -0.00813802 0)
(1.00409 -0.00919514 0)
(1.00419 -0.0102516 0)
(1.00428 -0.0113064 0)
(1.00437 -0.0123577 0)
(1.00444 -0.0134028 0)
(1.00449 -0.0144385 0)
(1.00451 -0.0154608 0)
(1.00451 -0.0164654 0)
(1.00448 -0.0174472 0)
(1.00442 -0.0184014 0)
(1.00432 -0.0193225 0)
(1.00418 -0.0202054 0)
(1.004 -0.0210448 0)
(1.00378 -0.0218357 0)
(1.00352 -0.0225736 0)
(1.00321 -0.0232542 0)
(1.00287 -0.0238739 0)
(1.00249 -0.0244296 0)
(1.00207 -0.024919 0)
(1.00162 -0.0253405 0)
(1.00114 -0.025693 0)
(1.00063 -0.0259764 0)
(1.00011 -0.0261911 0)
(0.999559 -0.0263383 0)
(0.998998 -0.0264198 0)
(0.998426 -0.0264378 0)
(0.997847 -0.0263952 0)
(0.997265 -0.0262953 0)
(0.996684 -0.0261415 0)
(0.996107 -0.0259377 0)
(0.995536 -0.025688 0)
(0.994975 -0.0253963 0)
(0.994425 -0.0250667 0)
(0.993889 -0.0247034 0)
(0.993368 -0.0243101 0)
(0.992863 -0.0238909 0)
(0.992376 -0.0234496 0)
(0.991908 -0.0229901 0)
(0.99146 -0.0225162 0)
(0.991032 -0.0220313 0)
(0.990626 -0.0215386 0)
(0.990242 -0.0210411 0)
(0.989881 -0.0205412 0)
(0.989544 -0.0200409 0)
(0.989227 -0.0195419 0)
(0.988928 -0.019046 0)
(0.988643 -0.0185548 0)
(0.988369 -0.0180701 0)
(0.988106 -0.0175933 0)
(0.987854 -0.017126 0)
(0.987614 -0.0166693 0)
(0.987387 -0.016224 0)
(0.987173 -0.0157907 0)
(0.986974 -0.01537 0)
(0.986788 -0.0149621 0)
(0.986615 -0.0145674 0)
(0.986455 -0.014186 0)
(0.986305 -0.013818 0)
(0.986166 -0.0134636 0)
(0.986038 -0.0131226 0)
(0.985918 -0.0127953 0)
(1.00423 -0.000553904 0)
(1.00425 -0.0019162 0)
(1.00432 -0.00306089 0)
(1.0044 -0.00429096 0)
(1.0045 -0.00547088 0)
(1.00462 -0.00664891 0)
(1.00475 -0.00782523 0)
(1.00488 -0.00900118 0)
(1.00502 -0.0101794 0)
(1.00516 -0.0113601 0)
(1.00529 -0.0125427 0)
(1.00541 -0.0137255 0)
(1.00551 -0.0149061 0)
(1.0056 -0.0160811 0)
(1.00565 -0.0172465 0)
(1.00567 -0.0183977 0)
(1.00566 -0.0195295 0)
(1.00561 -0.0206363 0)
(1.00551 -0.0217122 0)
(1.00537 -0.0227512 0)
(1.00517 -0.0237475 0)
(1.00493 -0.0246949 0)
(1.00463 -0.0255881 0)
(1.00428 -0.0264216 0)
(1.00388 -0.0271908 0)
(1.00343 -0.0278915 0)
(1.00293 -0.0285203 0)
(1.00239 -0.0290746 0)
(1.00181 -0.0295523 0)
(1.0012 -0.0299525 0)
(1.00055 -0.0302748 0)
(0.99988 -0.0305199 0)
(0.999185 -0.030689 0)
(0.998475 -0.0307841 0)
(0.997752 -0.0308078 0)
(0.997023 -0.0307634 0)
(0.996292 -0.0306544 0)
(0.995563 -0.0304849 0)
(0.99484 -0.0302591 0)
(0.994126 -0.0299815 0)
(0.993426 -0.0296569 0)
(0.99274 -0.0292901 0)
(0.992073 -0.0288859 0)
(0.991425 -0.028449 0)
(0.990798 -0.0279839 0)
(0.990194 -0.0274947 0)
(0.989613 -0.0269853 0)
(0.989056 -0.0264593 0)
(0.988522 -0.0259201 0)
(0.988011 -0.0253708 0)
(0.987519 -0.0248148 0)
(0.987048 -0.0242553 0)
(0.986597 -0.0236953 0)
(0.986169 -0.0231377 0)
(0.985768 -0.0225847 0)
(0.985396 -0.022038 0)
(0.985051 -0.021499 0)
(0.984733 -0.0209689 0)
(0.984438 -0.0204487 0)
(0.984163 -0.0199395 0)
(0.983905 -0.0194424 0)
(0.983664 -0.0189581 0)
(0.983437 -0.0184875 0)
(0.983223 -0.0180312 0)
(0.983022 -0.0175896 0)
(0.982834 -0.0171631 0)
(0.982658 -0.0167519 0)
(0.982493 -0.0163561 0)
(0.982338 -0.0159759 0)
(1.00501 -0.000605852 0)
(1.00505 -0.00208648 0)
(1.00513 -0.0033336 0)
(1.00522 -0.00467491 0)
(1.00535 -0.00596129 0)
(1.0055 -0.00724844 0)
(1.00566 -0.00853519 0)
(1.00583 -0.00982371 0)
(1.00601 -0.0111173 0)
(1.00619 -0.0124168 0)
(1.00636 -0.0137217 0)
(1.00652 -0.0150309 0)
(1.00667 -0.0163422 0)
(1.00679 -0.0176523 0)
(1.00688 -0.0189572 0)
(1.00693 -0.0202523 0)
(1.00694 -0.0215322 0)
(1.00691 -0.022791 0)
(1.00683 -0.0240224 0)
(1.00669 -0.0252198 0)
(1.00649 -0.0263766 0)
(1.00622 -0.0274859 0)
(1.0059 -0.0285412 0)
(1.00551 -0.0295363 0)
(1.00506 -0.0304652 0)
(1.00455 -0.0313226 0)
(1.00398 -0.0321041 0)
(1.00335 -0.0328055 0)
(1.00267 -0.0334241 0)
(1.00195 -0.0339575 0)
(1.00118 -0.0344047 0)
(1.00038 -0.0347653 0)
(0.999545 -0.0350397 0)
(0.998687 -0.0352296 0)
(0.997812 -0.0353369 0)
(0.996924 -0.0353646 0)
(0.99603 -0.0353162 0)
(0.995135 -0.0351958 0)
(0.994244 -0.0350077 0)
(0.993362 -0.0347569 0)
(0.992493 -0.0344482 0)
(0.99164 -0.034087 0)
(0.990807 -0.0336781 0)
(0.989996 -0.0332268 0)
(0.98921 -0.0327381 0)
(0.988451 -0.0322172 0)
(0.987719 -0.031669 0)
(0.987018 -0.0310986 0)
(0.986347 -0.0305108 0)
(0.98571 -0.0299097 0)
(0.985109 -0.0292993 0)
(0.984542 -0.0286828 0)
(0.98401 -0.0280629 0)
(0.983506 -0.0274421 0)
(0.983028 -0.026823 0)
(0.982569 -0.0262081 0)
(0.982128 -0.0256001 0)
(0.981706 -0.0250011 0)
(0.981304 -0.0244131 0)
(0.980923 -0.0238375 0)
(0.980566 -0.0232755 0)
(0.980231 -0.0227279 0)
(0.979919 -0.0221953 0)
(0.979628 -0.0216784 0)
(0.979356 -0.0211776 0)
(0.979104 -0.0206933 0)
(0.978868 -0.0202256 0)
(0.978649 -0.0197748 0)
(0.978445 -0.0193413 0)
(1.00582 -0.000655665 0)
(1.00586 -0.00224856 0)
(1.00596 -0.00359354 0)
(1.00607 -0.00504069 0)
(1.00623 -0.00642799 0)
(1.00641 -0.00781874 0)
(1.0066 -0.00921022 0)
(1.00681 -0.0106054 0)
(1.00703 -0.0120085 0)
(1.00726 -0.0134206 0)
(1.00748 -0.0148418 0)
(1.00768 -0.0162714 0)
(1.00787 -0.0177075 0)
(1.00804 -0.0191471 0)
(1.00817 -0.0205866 0)
(1.00827 -0.0220213 0)
(1.00831 -0.0234459 0)
(1.00831 -0.0248543 0)
(1.00825 -0.0262399 0)
(1.00812 -0.0275958 0)
(1.00793 -0.0289147 0)
(1.00766 -0.0301891 0)
(1.00732 -0.0314116 0)
(1.0069 -0.032575 0)
(1.00641 -0.0336722 0)
(1.00585 -0.0346968 0)
(1.00521 -0.0356429 0)
(1.0045 -0.0365054 0)
(1.00373 -0.0372798 0)
(1.00289 -0.0379629 0)
(1.002 -0.0385522 0)
(1.00107 -0.0390462 0)
(1.00009 -0.0394446 0)
(0.999084 -0.0397478 0)
(0.998047 -0.0399575 0)
(0.996991 -0.040076 0)
(0.995923 -0.0401066 0)
(0.994849 -0.0400532 0)
(0.993775 -0.0399202 0)
(0.992708 -0.0397127 0)
(0.991653 -0.039436 0)
(0.990614 -0.0390959 0)
(0.989596 -0.0386981 0)
(0.988603 -0.0382486 0)
(0.987638 -0.0377535 0)
(0.986704 -0.0372184 0)
(0.985801 -0.0366485 0)
(0.984932 -0.036049 0)
(0.984097 -0.0354243 0)
(0.983295 -0.0347791 0)
(0.982523 -0.0341176 0)
(0.981782 -0.0334445 0)
(0.981071 -0.0327641 0)
(0.980394 -0.0320807 0)
(0.979756 -0.0313977 0)
(0.97916 -0.0307181 0)
(0.978607 -0.0300439 0)
(0.978095 -0.029377 0)
(0.977618 -0.0287193 0)
(0.977172 -0.0280725 0)
(0.976754 -0.0274383 0)
(0.976361 -0.0268182 0)
(0.975991 -0.0262136 0)
(0.975642 -0.0256255 0)
(0.975314 -0.0250549 0)
(0.975006 -0.0245023 0)
(0.974717 -0.0239683 0)
(0.974447 -0.0234533 0)
(0.974194 -0.0229576 0)
(1.00665 -0.000703152 0)
(1.0067 -0.00240218 0)
(1.00681 -0.00384041 0)
(1.00694 -0.00538785 0)
(1.00712 -0.00687042 0)
(1.00733 -0.00835913 0)
(1.00757 -0.0098494 0)
(1.00782 -0.0113452 0)
(1.00808 -0.0128514 0)
(1.00835 -0.0143695 0)
(1.00862 -0.0159004 0)
(1.00888 -0.0174438 0)
(1.00912 -0.0189982 0)
(1.00934 -0.0205611 0)
(1.00952 -0.0221292 0)
(1.00966 -0.023698 0)
(1.00975 -0.0252625 0)
(1.00979 -0.0268166 0)
(1.00976 -0.0283537 0)
(1.00965 -0.0298666 0)
(1.00948 -0.0313477 0)
(1.00922 -0.0327889 0)
(1.00887 -0.0341821 0)
(1.00844 -0.0355192 0)
(1.00792 -0.0367921 0)
(1.00731 -0.0379932 0)
(1.00661 -0.0391154 0)
(1.00583 -0.0401521 0)
(1.00497 -0.0410975 0)
(1.00403 -0.0419469 0)
(1.00303 -0.0426963 0)
(1.00196 -0.043343 0)
(1.00085 -0.0438854 0)
(0.99968 -0.044323 0)
(0.998478 -0.0446562 0)
(0.997246 -0.0448867 0)
(0.995994 -0.045017 0)
(0.994729 -0.0450505 0)
(0.99346 -0.0449913 0)
(0.992194 -0.0448444 0)
(0.990937 -0.044615 0)
(0.989696 -0.044309 0)
(0.988476 -0.0439323 0)
(0.987282 -0.0434911 0)
(0.986118 -0.0429918 0)
(0.984988 -0.0424406 0)
(0.983895 -0.0418443 0)
(0.98284 -0.0412092 0)
(0.981828 -0.0405421 0)
(0.98086 -0.0398491 0)
(0.97994 -0.0391358 0)
(0.979071 -0.0384073 0)
(0.97825 -0.0376676 0)
(0.977475 -0.0369203 0)
(0.976736 -0.036169 0)
(0.976028 -0.0354174 0)
(0.975348 -0.0346691 0)
(0.974696 -0.0339276 0)
(0.974075 -0.0331959 0)
(0.973487 -0.0324763 0)
(0.972934 -0.0317706 0)
(0.972415 -0.0310802 0)
(0.97193 -0.0304065 0)
(0.971478 -0.0297503 0)
(0.971056 -0.0291125 0)
(0.970662 -0.028494 0)
(0.970294 -0.0278953 0)
(0.969952 -0.0273169 0)
(0.969632 -0.0267593 0)
(1.00748 -0.00074816 0)
(1.00754 -0.00254693 0)
(1.00766 -0.00407347 0)
(1.00782 -0.00571539 0)
(1.00803 -0.0072874 0)
(1.00827 -0.00886815 0)
(1.00855 -0.0104511 0)
(1.00884 -0.0120411 0)
(1.00915 -0.0136437 0)
(1.00947 -0.0152612 0)
(1.00979 -0.0168949 0)
(1.0101 -0.018545 0)
(1.0104 -0.0202106 0)
(1.01067 -0.0218899 0)
(1.01091 -0.0235799 0)
(1.01111 -0.0252766 0)
(1.01125 -0.0269753 0)
(1.01133 -0.0286703 0)
(1.01134 -0.030355 0)
(1.01128 -0.0320222 0)
(1.01112 -0.0336642 0)
(1.01088 -0.0352726 0)
(1.01055 -0.0368387 0)
(1.01011 -0.0383537 0)
(1.00957 -0.0398087 0)
(1.00893 -0.0411948 0)
(1.00819 -0.0425038 0)
(1.00735 -0.0437276 0)
(1.00641 -0.044859 0)
(1.00538 -0.0458916 0)
(1.00426 -0.0468201 0)
(1.00307 -0.04764 0)
(1.00181 -0.0483482 0)
(1.00049 -0.0489426 0)
(0.999124 -0.0494224 0)
(0.997713 -0.0497882 0)
(0.99627 -0.0500414 0)
(0.994807 -0.0501848 0)
(0.993331 -0.0502222 0)
(0.991851 -0.0501581 0)
(0.990377 -0.049998 0)
(0.988916 -0.049748 0)
(0.987475 -0.0494146 0)
(0.986059 -0.049005 0)
(0.984675 -0.0485264 0)
(0.983328 -0.0479859 0)
(0.98202 -0.0473907 0)
(0.980756 -0.0467473 0)
(0.979536 -0.046062 0)
(0.978361 -0.0453404 0)
(0.97723 -0.0445884 0)
(0.97614 -0.0438116 0)
(0.975092 -0.0430162 0)
(0.97409 -0.0422082 0)
(0.973141 -0.0413928 0)
(0.972251 -0.0405747 0)
(0.971422 -0.0397572 0)
(0.97065 -0.0389432 0)
(0.969931 -0.0381356 0)
(0.969257 -0.037337 0)
(0.968623 -0.0365502 0)
(0.968026 -0.0357776 0)
(0.967462 -0.0350213 0)
(0.966931 -0.0342832 0)
(0.966431 -0.0335647 0)
(0.965961 -0.0328671 0)
(0.96552 -0.0321911 0)
(0.965107 -0.0315377 0)
(0.964721 -0.0309073 0)
(1.00832 -0.000790552 0)
(1.00839 -0.00268236 0)
(1.00853 -0.00429178 0)
(1.00871 -0.00602202 0)
(1.00894 -0.00767739 0)
(1.00922 -0.00934403 0)
(1.00953 -0.0110132 0)
(1.00987 -0.0126909 0)
(1.01023 -0.0143833 0)
(1.0106 -0.0160932 0)
(1.01097 -0.0178224 0)
(1.01134 -0.019572 0)
(1.0117 -0.0213417 0)
(1.01203 -0.02313 0)
(1.01233 -0.0249348 0)
(1.01259 -0.0267527 0)
(1.01279 -0.0285794 0)
(1.01293 -0.0304095 0)
(1.01299 -0.0322371 0)
(1.01297 -0.034055 0)
(1.01286 -0.0358556 0)
(1.01265 -0.0376304 0)
(1.01233 -0.0393704 0)
(1.01191 -0.0410663 0)
(1.01136 -0.0427084 0)
(1.01071 -0.0442871 0)
(1.00993 -0.0457926 0)
(1.00904 -0.0472159 0)
(1.00804 -0.0485481 0)
(1.00693 -0.0497811 0)
(1.00572 -0.0509077 0)
(1.00441 -0.0519219 0)
(1.00301 -0.0528186 0)
(1.00154 -0.053594 0)
(1.00001 -0.0542459 0)
(0.998416 -0.0547731 0)
(0.996779 -0.055176 0)
(0.99511 -0.0554562 0)
(0.993418 -0.0556165 0)
(0.991715 -0.0556607 0)
(0.99001 -0.0555938 0)
(0.988313 -0.0554212 0)
(0.986634 -0.0551494 0)
(0.984979 -0.054785 0)
(0.983356 -0.0543351 0)
(0.981771 -0.0538073 0)
(0.98023 -0.0532092 0)
(0.978736 -0.052549 0)
(0.977294 -0.0518353 0)
(0.975908 -0.0510764 0)
(0.974583 -0.0502805 0)
(0.973324 -0.0494549 0)
(0.972131 -0.0486058 0)
(0.971001 -0.0477385 0)
(0.969925 -0.0468576 0)
(0.968894 -0.045968 0)
(0.967902 -0.045075 0)
(0.96695 -0.0441836 0)
(0.966041 -0.0432982 0)
(0.96518 -0.0424223 0)
(0.964368 -0.0415588 0)
(0.963608 -0.0407101 0)
(0.962896 -0.0398781 0)
(0.96223 -0.0390647 0)
(0.961608 -0.0382713 0)
(0.961027 -0.0374993 0)
(0.960484 -0.0367498 0)
(0.959977 -0.0360239 0)
(0.959503 -0.0353224 0)
(1.00916 -0.00083022 0)
(1.00923 -0.00280808 0)
(1.00939 -0.00449455 0)
(1.00959 -0.00630666 0)
(1.00985 -0.00803913 0)
(1.01016 -0.00978533 0)
(1.01051 -0.0115343 0)
(1.0109 -0.013293 0)
(1.0113 -0.0150683 0)
(1.01173 -0.0168635 0)
(1.01216 -0.0186813 0)
(1.01259 -0.0205231 0)
(1.01301 -0.0223893 0)
(1.01341 -0.0242794 0)
(1.01377 -0.0261918 0)
(1.01409 -0.0281237 0)
(1.01436 -0.0300716 0)
(1.01456 -0.0320308 0)
(1.01468 -0.0339957 0)
(1.01472 -0.0359598 0)
(1.01466 -0.0379157 0)
(1.01449 -0.0398549 0)
(1.01421 -0.0417686 0)
(1.01381 -0.0436471 0)
(1.01328 -0.0454801 0)
(1.01262 -0.0472574 0)
(1.01184 -0.0489682 0)
(1.01091 -0.0506021 0)
(1.00986 -0.0521489 0)
(1.00869 -0.0535987 0)
(1.00739 -0.0549426 0)
(1.00597 -0.0561724 0)
(1.00446 -0.0572813 0)
(1.00284 -0.0582635 0)
(1.00115 -0.0591147 0)
(0.999377 -0.0598319 0)
(0.997547 -0.0604138 0)
(0.995668 -0.0608603 0)
(0.993755 -0.0611729 0)
(0.991819 -0.0613547 0)
(0.989872 -0.0614096 0)
(0.987926 -0.0613432 0)
(0.985991 -0.0611618 0)
(0.984077 -0.0608729 0)
(0.982193 -0.0604845 0)
(0.980346 -0.0600054 0)
(0.978545 -0.059444 0)
(0.976794 -0.058809 0)
(0.975097 -0.0581083 0)
(0.973457 -0.0573491 0)
(0.971874 -0.0565387 0)
(0.970345 -0.055684 0)
(0.968872 -0.0547927 0)
(0.967457 -0.0538728 0)
(0.966109 -0.0529323 0)
(0.964839 -0.051978 0)
(0.963651 -0.0510154 0)
(0.962543 -0.0500492 0)
(0.961507 -0.0490833 0)
(0.960534 -0.0481219 0)
(0.959618 -0.0471691 0)
(0.958752 -0.0462286 0)
(0.957934 -0.0453037 0)
(0.957163 -0.0443974 0)
(0.956437 -0.0435119 0)
(0.955755 -0.0426491 0)
(0.955114 -0.0418107 0)
(0.954513 -0.040998 0)
(0.953951 -0.0402121 0)
(1.00999 -0.000867076 0)
(1.01007 -0.00292386 0)
(1.01024 -0.00468133 0)
(1.01046 -0.00656876 0)
(1.01076 -0.00837201 0)
(1.0111 -0.0101914 0)
(1.01149 -0.0120136 0)
(1.01192 -0.0138467 0)
(1.01237 -0.0156982 0)
(1.01285 -0.0175719 0)
(1.01334 -0.0194711 0)
(1.01383 -0.0213979 0)
(1.01432 -0.0233535 0)
(1.01478 -0.025338 0)
(1.01521 -0.0273506 0)
(1.01561 -0.0293893 0)
(1.01594 -0.0314514 0)
(1.01622 -0.033533 0)
(1.01641 -0.0356291 0)
(1.01651 -0.037734 0)
(1.01651 -0.0398407 0)
(1.0164 -0.0419413 0)
(1.01617 -0.0440269 0)
(1.01581 -0.046088 0)
(1.01531 -0.0481142 0)
(1.01467 -0.0500944 0)
(1.01389 -0.0520174 0)
(1.01295 -0.0538715 0)
(1.01187 -0.0556452 0)
(1.01064 -0.0573272 0)
(1.00928 -0.0589065 0)
(1.00778 -0.0603732 0)
(1.00615 -0.0617181 0)
(1.00441 -0.0629332 0)
(1.00256 -0.0640119 0)
(1.00062 -0.0649491 0)
(0.998597 -0.0657412 0)
(0.996511 -0.0663863 0)
(0.994374 -0.0668843 0)
(0.992199 -0.0672365 0)
(0.990001 -0.0674459 0)
(0.987794 -0.0675167 0)
(0.98559 -0.0674544 0)
(0.983401 -0.0672653 0)
(0.981238 -0.0669567 0)
(0.979112 -0.0665362 0)
(0.977032 -0.0660124 0)
(0.975004 -0.0653945 0)
(0.973035 -0.0646924 0)
(0.971132 -0.0639169 0)
(0.969302 -0.0630789 0)
(0.967552 -0.0621888 0)
(0.965886 -0.0612561 0)
(0.964304 -0.0602884 0)
(0.962796 -0.0592921 0)
(0.961352 -0.0582736 0)
(0.959962 -0.0572397 0)
(0.958626 -0.0561974 0)
(0.957348 -0.0551532 0)
(0.956136 -0.0541126 0)
(0.954992 -0.0530799 0)
(0.953918 -0.0520589 0)
(0.952912 -0.0510527 0)
(0.95197 -0.0500642 0)
(0.951088 -0.0490959 0)
(0.950264 -0.0481501 0)
(0.949493 -0.0472287 0)
(0.948772 -0.0463334 0)
(0.948098 -0.045466 0)
(1.01081 -0.000901049 0)
(1.0109 -0.00302964 0)
(1.01108 -0.00485209 0)
(1.01133 -0.00680833 0)
(1.01165 -0.00867611 0)
(1.01203 -0.0105624 0)
(1.01245 -0.0124515 0)
(1.01292 -0.0143526 0)
(1.01343 -0.0162737 0)
(1.01396 -0.0182192 0)
(1.01451 -0.020193 0)
(1.01506 -0.0221978 0)
(1.01561 -0.0242356 0)
(1.01615 -0.0263072 0)
(1.01665 -0.0284126 0)
(1.01712 -0.0305508 0)
(1.01753 -0.0327198 0)
(1.01788 -0.0349167 0)
(1.01815 -0.0371374 0)
(1.01833 -0.0393768 0)
(1.01841 -0.0416289 0)
(1.01837 -0.0438863 0)
(1.0182 -0.0461407 0)
(1.01789 -0.0483828 0)
(1.01744 -0.0506023 0)
(1.01684 -0.0527878 0)
(1.01607 -0.0549277 0)
(1.01514 -0.0570095 0)
(1.01405 -0.0590205 0)
(1.0128 -0.060948 0)
(1.01138 -0.0627794 0)
(1.00981 -0.0645026 0)
(1.0081 -0.0661062 0)
(1.00624 -0.0675799 0)
(1.00425 -0.0689146 0)
(1.00215 -0.0701026 0)
(0.999953 -0.0711378 0)
(0.997665 -0.0720161 0)
(0.995305 -0.0727349 0)
(0.992891 -0.0732936 0)
(0.990437 -0.0736934 0)
(0.987959 -0.0739371 0)
(0.985473 -0.0740295 0)
(0.982992 -0.0739767 0)
(0.980531 -0.0737866 0)
(0.978101 -0.0734681 0)
(0.975713 -0.0730311 0)
(0.973377 -0.0724858 0)
(0.971101 -0.0718422 0)
(0.968891 -0.0711095 0)
(0.966751 -0.0702962 0)
(0.964679 -0.0694108 0)
(0.962676 -0.0684622 0)
(0.960745 -0.0674603 0)
(0.958895 -0.066416 0)
(0.957142 -0.0653396 0)
(0.955495 -0.0642398 0)
(0.953954 -0.0631235 0)
(0.95251 -0.061997 0)
(0.951152 -0.0608661 0)
(0.94987 -0.0597368 0)
(0.948659 -0.0586147 0)
(0.947514 -0.0575049 0)
(0.946433 -0.0564117 0)
(0.945415 -0.0553389 0)
(0.944457 -0.0542895 0)
(0.943558 -0.053266 0)
(0.942715 -0.0522707 0)
(0.941926 -0.0513055 0)
(1.01161 -0.000932108 0)
(1.01171 -0.00312553 0)
(1.01191 -0.00500712 0)
(1.01218 -0.00702583 0)
(1.01252 -0.00895205 0)
(1.01293 -0.0108991 0)
(1.0134 -0.012849 0)
(1.01392 -0.0148119 0)
(1.01447 -0.0167963 0)
(1.01505 -0.0188072 0)
(1.01566 -0.0208489 0)
(1.01628 -0.022925 0)
(1.01689 -0.0250381 0)
(1.0175 -0.0271897 0)
(1.01808 -0.0293806 0)
(1.01863 -0.0316109 0)
(1.01912 -0.0338793 0)
(1.01955 -0.036184 0)
(1.01991 -0.038522 0)
(1.02017 -0.040889 0)
(1.02033 -0.04328 0)
(1.02037 -0.0456885 0)
(1.02028 -0.0481069 0)
(1.02004 -0.0505264 0)
(1.01965 -0.0529372 0)
(1.0191 -0.0553281 0)
(1.01838 -0.0576871 0)
(1.01748 -0.0600014 0)
(1.0164 -0.0622575 0)
(1.01514 -0.0644413 0)
(1.0137 -0.0665388 0)
(1.01209 -0.068536 0)
(1.0103 -0.0704193 0)
(1.00835 -0.072176 0)
(1.00625 -0.0737943 0)
(1.004 -0.0752638 0)
(1.00163 -0.0765756 0)
(0.999153 -0.0777225 0)
(0.996578 -0.0786994 0)
(0.993926 -0.079503 0)
(0.991214 -0.0801324 0)
(0.988461 -0.0805885 0)
(0.985684 -0.0808741 0)
(0.9829 -0.0809936 0)
(0.980126 -0.0809531 0)
(0.977375 -0.0807595 0)
(0.974663 -0.080421 0)
(0.972002 -0.0799467 0)
(0.969401 -0.0793472 0)
(0.966872 -0.0786344 0)
(0.964423 -0.077822 0)
(0.962065 -0.0769239 0)
(0.959808 -0.0759536 0)
(0.957656 -0.0749226 0)
(0.955604 -0.0738403 0)
(0.953638 -0.0727148 0)
(0.951746 -0.0715546 0)
(0.949924 -0.0703692 0)
(0.948178 -0.0691677 0)
(0.946518 -0.0679583 0)
(0.94495 -0.0667478 0)
(0.943475 -0.0655419 0)
(0.942091 -0.0643455 0)
(0.940795 -0.063163 0)
(0.939581 -0.0619987 0)
(0.938445 -0.060856 0)
(0.937381 -0.0597382 0)
(0.936386 -0.0586482 0)
(0.935456 -0.0575885 0)
(1.0124 -0.000960305 0)
(1.01251 -0.00321184 0)
(1.01272 -0.00514695 0)
(1.01301 -0.00722206 0)
(1.01338 -0.00920088 0)
(1.01382 -0.0112029 0)