/*--------------------------------*- C++ -*----------------------------------*\
  =========                 |
  \\      /  F ield         | OpenFOAM: The Open Source CFD Toolbox
   \\    /   O peration     | Website:  https://openfoam.org
    \\  /    A nd           | Version:  10
     \\/     M anipulation  |
\*---------------------------------------------------------------------------*/
FoamFile
{
    format      ascii;
    class       volVectorField;
    location    "0";
    object      U;
}
// * * * * * * * * * * * * * * * * * * * * * * * * * * * * * * * * * * * * * //

dimensions      [0 1 -1 0 0 0 0];

internalField   nonuniform List<vector> 
18483
(
(0.999999 -0.00017891 0)
(0.999999 -0.000642262 0)
(0.999998 -0.00103112 0)
(0.999996 -0.00145663 0)
(0.999994 -0.00187152 0)
(0.999992 -0.00228175 0)
(0.99999 -0.00266852 0)
(0.999987 -0.00301908 0)
(0.999985 -0.00332091 0)
(0.999986 -0.00356582 0)
(0.999993 -0.00374733 0)
(1.00001 -0.00386382 0)
(1.00005 -0.00391592 0)
(1.00011 -0.00391867 0)
(1.0002 -0.00390807 0)
(1.0003 -0.00390779 0)
(1.0004 -0.00389795 0)
(1.00038 -0.00382345 0)
(0.999832 -0.00364296 0)
(0.997893 -0.00340605 0)
(0.99401 -0.00329603 0)
(0.989458 -0.00349926 0)
(0.986873 -0.00393385 0)
(0.987336 -0.00431301 0)
(0.98961 -0.00448123 0)
(0.992146 -0.00447173 0)
(0.99422 -0.00436554 0)
(0.995715 -0.00422351 0)
(0.996738 -0.00407961 0)
(1.00056 -0.000520799 0)
(1.00058 -0.00185925 0)
(1.00066 -0.00298963 0)
(1.00073 -0.00424104 0)
(1.0008 -0.00547201 0)
(1.00086 -0.00670562 0)
(1.00089 -0.00788438 0)
(1.00088 -0.00896755 0)
(1.00083 -0.00990609 0)
(1.00073 -0.0106636 0)
(1.00058 -0.0112215 0)
(1.00038 -0.0115891 0)
(1.00014 -0.0118021 0)
(0.999871 -0.0118546 0)
(0.999575 -0.011681 0)
(0.999215 -0.0112417 0)
(0.998753 -0.0105792 0)
(0.998294 -0.00983705 0)
(0.99851 -0.00918767 0)
(1.00097 -0.00871479 0)
(1.00686 -0.00823405 0)
(1.01404 -0.00743975 0)
(1.01777 -0.0064155 0)
(1.01618 -0.00557535 0)
(1.01173 -0.00512196 0)
(1.00724 -0.00494278 0)
(1.00384 -0.00488128 0)
(1.00154 -0.00484652 0)
(1.00005 -0.0048019 0)
(1.0016 -0.0008223 0)
(1.00169 -0.0029166 0)
(1.00189 -0.00468907 0)
(1.00211 -0.00666764 0)
(1.00233 -0.00862237 0)
(1.00252 -0.0106046 0)
(1.00263 -0.0125261 0)
(1.00262 -0.0143275 0)
(1.00247 -0.0159391 0)
(1.00218 -0.0173161 0)
(1.00174 -0.0184387 0)
(1.00119 -0.0192992 0)
(1.00062 -0.0199008 0)
(1.00007 -0.0202747 0)
(0.999547 -0.0205243 0)
(0.999012 -0.0208198 0)
(0.998458 -0.0212957 0)
(0.997796 -0.0218837 0)
(0.996454 -0.0223092 0)
(0.993016 -0.0222921 0)
(0.986425 -0.021818 0)
(0.978896 -0.0211866 0)
(0.975459 -0.0206145 0)
(0.977866 -0.0199881 0)
(0.982884 -0.0192019 0)
(0.987302 -0.0183749 0)
(0.990236 -0.0176321 0)
(0.991958 -0.0170158 0)
(0.992908 -0.0165249 0)
(1.00285 -0.00107677 0)
(1.00302 -0.00379662 0)
(1.00336 -0.00609746 0)
(1.00377 -0.00868346 0)
(1.00418 -0.0112497 0)
(1.00454 -0.0138814 0)
(1.00477 -0.0164745 0)
(1.00481 -0.0189586 0)
(1.00462 -0.0212386 0)
(1.0042 -0.0232333 0)
(1.00358 -0.0248639 0)
(1.00284 -0.0260639 0)
(1.00202 -0.0268175 0)
(1.00115 -0.0271753 0)
(1.00023 -0.0272019 0)
(0.999285 -0.0268057 0)
(0.998343 -0.0258032 0)
(0.997477 -0.0242297 0)
(0.997136 -0.0224439 0)
(0.998711 -0.0209373 0)
(1.00371 -0.0200443 0)
(1.0104 -0.0196405 0)
(1.01344 -0.019336 0)
(1.01038 -0.0190694 0)
(1.00446 -0.0189626 0)
(0.999336 -0.0189365 0)
(0.995941 -0.0188773 0)
(0.993898 -0.0187604 0)
(0.992693 -0.0185939 0)
(1.00414 -0.00128518 0)
(1.0044 -0.0045069 0)
(1.0049 -0.00723005 0)
(1.00551 -0.0103098 0)
(1.00615 -0.013382 0)
(1.00673 -0.0165698 0)
(1.00714 -0.0197614 0)
(1.00729 -0.0228776 0)
(1.00713 -0.0257931 0)
(1.00662 -0.0283936 0)
(1.00577 -0.0305823 0)
(1.0046 -0.0323157 0)
(1.00312 -0.0336295 0)
(1.00142 -0.0345903 0)
(0.999597 -0.0352444 0)
(0.99772 -0.0356942 0)
(0.995789 -0.0361678 0)
(0.993734 -0.0368346 0)
(0.991246 -0.0375201 0)
(0.987387 -0.0377312 0)
(0.981023 -0.0370287 0)
(0.973466 -0.0354938 0)
(0.969555 -0.0337775 0)
(0.971924 -0.0322667 0)
(0.977145 -0.0308087 0)
(0.981311 -0.0294072 0)
(0.983673 -0.0281783 0)
(0.984812 -0.0271362 0)
(0.985278 -0.0262662 0)
(1.00543 -0.00145357 0)
(1.00579 -0.00507076 0)
(1.00645 -0.00812786 0)
(1.00728 -0.0116061 0)
(1.00819 -0.0150958 0)
(1.00904 -0.0187639 0)
(1.0097 -0.0224986 0)
(1.01005 -0.0262262 0)
(1.00996 -0.0298141 0)
(1.00938 -0.0331429 0)
(1.00828 -0.036111 0)
(1.00671 -0.0386427 0)
(1.0048 -0.0406617 0)
(1.00274 -0.0420747 0)
(1.00067 -0.0428443 0)
(0.998626 -0.0429526 0)
(0.996622 -0.0423272 0)
(0.994633 -0.0409199 0)
(0.992808 -0.038891 0)
(0.99206 -0.0367338 0)
(0.994172 -0.0350512 0)
(0.999069 -0.0341496 0)
(1.00216 -0.0336364 0)
(0.999379 -0.0330098 0)
(0.993168 -0.0324646 0)
(0.987831 -0.0321033 0)
(0.984416 -0.0317464 0)
(0.98231 -0.0313534 0)
(0.98095 -0.0309317 0)
(1.00671 -0.00158925 0)
(1.00717 -0.00551605 0)
(1.00801 -0.00883604 0)
(1.00907 -0.0126349 0)
(1.01028 -0.016468 0)
(1.01145 -0.0205531 0)
(1.01243 -0.0247874 0)
(1.01305 -0.0291182 0)
(1.01316 -0.0334142 0)
(1.01267 -0.037534 0)
(1.01155 -0.0413127 0)
(1.00989 -0.0445807 0)
(1.0078 -0.0471954 0)
(1.00536 -0.0490863 0)
(1.00259 -0.0503276 0)
(0.999506 -0.0511072 0)
(0.996127 -0.0517107 0)
(0.99244 -0.0524042 0)
(0.988369 -0.0532051 0)
(0.983432 -0.053818 0)
(0.976537 -0.0537741 0)
(0.96788 -0.0528012 0)
(0.961676 -0.0511458 0)
(0.962142 -0.0494144 0)
(0.966715 -0.047626 0)
(0.970394 -0.0456571 0)
(0.972085 -0.0438 0)
(0.972626 -0.0421731 0)
(0.972619 -0.0407821 0)
(1.00798 -0.00169921 0)
(1.00855 -0.00586919 0)
(1.00956 -0.0093958 0)
(1.01086 -0.0134501 0)
(1.01237 -0.0175608 0)
(1.0139 -0.0219992 0)
(1.01527 -0.0266786 0)
(1.01626 -0.0315723 0)
(1.0167 -0.0365508 0)
(1.01645 -0.0414519 0)
(1.01543 -0.0460775 0)
(1.01363 -0.0502429 0)
(1.01108 -0.0538294 0)
(1.00786 -0.0567779 0)
(1.00413 -0.0590551 0)
(1.00013 -0.0605702 0)
(0.996067 -0.061137 0)
(0.992049 -0.0605028 0)
(0.98822 -0.0586822 0)
(0.985408 -0.056198 0)
(0.985448 -0.0537571 0)
(0.989081 -0.0519091 0)
(0.992193 -0.0508268 0)
(0.989061 -0.0499855 0)
(0.981143 -0.0492084 0)
(0.974213 -0.0487505 0)
(0.969926 -0.0483378 0)
(0.967224 -0.0478285 0)
(0.965377 -0.0472553 0)
(1.00921 -0.00178922 0)
(1.00988 -0.00615228 0)
(1.01106 -0.00984183 0)
(1.01261 -0.014096 0)
(1.01443 -0.0184217 0)
(1.01633 -0.0231435 0)
(1.01812 -0.0281957 0)
(1.01956 -0.0335852 0)
(1.02042 -0.0392037 0)
(1.02049 -0.0449043 0)
(1.0196 -0.050497 0)
(1.0177 -0.0557776 0)
(1.01485 -0.0605399 0)
(1.01123 -0.0645587 0)
(1.00709 -0.067642 0)
(1.00259 -0.0697032 0)
(0.997724 -0.0709323 0)
(0.992431 -0.0719346 0)
(0.986676 -0.0732597 0)
(0.980261 -0.0747616 0)
(0.972089 -0.07574 0)
(0.961603 -0.0755525 0)
(0.952482 -0.0740587 0)
(0.950492 -0.0719829 0)
(0.954361 -0.0698003 0)
(0.957571 -0.0672945 0)
(0.958281 -0.064812 0)
(0.957899 -0.0626407 0)
(0.957155 -0.0607743 0)
(1.01038 -0.00186336 0)
(1.01115 -0.0063818 0)
(1.01249 -0.0102005 0)
(1.01426 -0.0146058 0)
(1.01639 -0.0190866 0)
(1.01868 -0.0240189 0)
(1.02092 -0.0293619 0)
(1.02286 -0.0351677 0)
(1.02422 -0.0413677 0)
(1.02473 -0.0478454 0)
(1.0242 -0.054407 0)
(1.02253 -0.0607886 0)
(1.01977 -0.0666917 0)
(1.01599 -0.0718374 0)
(1.01129 -0.0760698 0)
(1.00578 -0.079356 0)
(0.999645 -0.0816685 0)
(0.993283 -0.0827673 0)
(0.987219 -0.0822187 0)
(0.982062 -0.0801274 0)
(0.979256 -0.0773978 0)
(0.980511 -0.0750395 0)
(0.983095 -0.073657 0)
(0.979676 -0.0727393 0)
(0.969572 -0.0717037 0)
(0.960159 -0.0709886 0)
(0.95452 -0.0704206 0)
(0.9509 -0.0696662 0)
(0.948281 -0.0688077 0)
(1.01146 -0.00192442 0)
(1.01233 -0.00656932 0)
(1.01381 -0.0104906 0)
(1.0158 -0.0150045 0)
(1.01822 -0.0195849 0)
(1.02089 -0.0246557 0)
(1.0236 -0.0302029 0)
(1.02609 -0.0363282 0)
(1.02805 -0.0430076 0)
(1.02918 -0.0501579 0)
(1.02923 -0.0575945 0)
(1.02802 -0.0650512 0)
(1.02541 -0.0722338 0)
(1.02139 -0.0788578 0)
(1.01606 -0.0846705 0)
(1.0097 -0.0894197 0)
(1.0027 -0.0929008 0)
(0.995353 -0.0952482 0)
(0.987742 -0.0972851 0)
(0.979563 -0.0997834 0)
(0.969822 -0.102215 0)
(0.957253 -0.103253 0)
(0.944273 -0.102144 0)
(0.938009 -0.0997329 0)
(0.940123 -0.0971401 0)
(0.942835 -0.0941165 0)
(0.942297 -0.0908688 0)
(0.940623 -0.0880124 0)
(0.938844 -0.0855366 0)
(1.01245 -0.00197471 0)
(1.01342 -0.0067236 0)
(1.01503 -0.0107264 0)
(1.01721 -0.0153128 0)
(1.0199 -0.0199437 0)
(1.02294 -0.0250857 0)
(1.02612 -0.0307494 0)
(1.02918 -0.0370847 0)
(1.03181 -0.0441171 0)
(1.03366 -0.0518158 0)
(1.0344 -0.0600483 0)
(1.03372 -0.0685935 0)
(1.03143 -0.0771573 0)
(1.02748 -0.0853656 0)
(1.02199 -0.0927986 0)
(1.01521 -0.0990934 0)
(1.00744 -0.104085 0)
(0.999017 -0.107699 0)
(0.990491 -0.109557 0)
(0.982532 -0.109084 0)
(0.97623 -0.106566 0)
(0.97377 -0.103545 0)
(0.974687 -0.101674 0)
(0.971218 -0.1009 0)
(0.958929 -0.0998091 0)
(0.945748 -0.0987407 0)
(0.937817 -0.0980097 0)
(0.932762 -0.0969419 0)
(0.928876 -0.0956495 0)
(1.01338 -0.00201654 0)
(1.01442 -0.00685175 0)
(1.01614 -0.010919 0)
(1.01849 -0.0155482 0)
(1.02143 -0.0201885 0)
(1.02481 -0.0253424 0)
(1.02844 -0.0310416 0)
(1.03206 -0.0374821 0)
(1.03537 -0.0447467 0)
(1.03799 -0.0528755 0)
(1.0395 -0.0618041 0)
(1.03957 -0.0713529 0)
(1.03795 -0.0812143 0)
(1.03449 -0.0909685 0)
(1.02915 -0.100171 0)
(1.02199 -0.108438 0)
(1.01333 -0.115496 0)
(1.00376 -0.121127 0)
(0.993666 -0.12546 0)
(0.982879 -0.129424 0)
(0.970629 -0.133613 0)
(0.955708 -0.136791 0)
(0.938742 -0.13701 0)
(0.926472 -0.134347 0)
(0.92474 -0.131015 0)
(0.92669 -0.12745 0)
(0.924716 -0.123222 0)
(0.921095 -0.1194 0)
(0.917806 -0.116142 0)
(1.01424 -0.00205234 0)
(1.01534 -0.00695963 0)
(1.01715 -0.0110764 0)
(1.01965 -0.0157254 0)
(1.02281 -0.0203422 0)
(1.02649 -0.0254595 0)
(1.03054 -0.0311258 0)
(1.03471 -0.0375801 0)
(1.0387 -0.0449643 0)
(1.04212 -0.0533902 0)
(1.04456 -0.0628603 0)
(1.04561 -0.0732477 0)
(1.04492 -0.0842908 0)
(1.04218 -0.0956174 0)
(1.03716 -0.106786 0)
(1.02992 -0.117295 0)
(1.02084 -0.126649 0)
(1.01051 -0.134438 0)
(0.99939 -0.140172 0)
(0.98793 -0.143037 0)
(0.977212 -0.142482 0)
(0.969639 -0.139529 0)
(0.966927 -0.136874 0)
(0.963192 -0.136312 0)
(0.949585 -0.135841 0)
(0.931442 -0.134402 0)
(0.919522 -0.133375 0)
(0.912362 -0.131973 0)
(0.906557 -0.129975 0)
(1.01505 -0.00208435 0)
(1.01617 -0.00705206 0)
(1.01807 -0.011205 0)
(1.02069 -0.0158563 0)
(1.02404 -0.0204249 0)
(1.028 -0.0254688 0)
(1.03243 -0.0310472 0)
(1.03712 -0.0374369 0)
(1.04178 -0.0448324 0)
(1.04605 -0.0534131 0)
(1.04949 -0.0632564 0)
(1.05163 -0.0743217 0)
(1.05202 -0.0864374 0)
(1.05021 -0.0992883 0)
(1.04593 -0.112404 0)
(1.03914 -0.125184 0)
(1.03006 -0.137035 0)
(1.01912 -0.147469 0)
(1.00663 -0.156092 0)
(0.992619 -0.163239 0)
(0.976869 -0.170127 0)
(0.958881 -0.176725 0)
(0.937874 -0.180364 0)
(0.918053 -0.178721 0)
(0.908872 -0.174338 0)
(0.908647 -0.170036 0)
(0.905397 -0.164781 0)
(0.898909 -0.159433 0)
(0.893337 -0.155038 0)
(1.0158 -0.00211426 0)
(1.01693 -0.0071328 0)
(1.0189 -0.01131 0)
(1.02162 -0.0159512 0)
(1.02514 -0.0204547 0)
(1.02933 -0.0253987 0)
(1.0341 -0.0308467 0)
(1.03927 -0.0371062 0)
(1.04457 -0.0444178 0)
(1.04967 -0.0530262 0)
(1.05412 -0.0630943 0)
(1.0574 -0.0746808 0)
(1.05899 -0.087702 0)
(1.05843 -0.101899 0)
(1.05529 -0.116834 0)
(1.04934 -0.131922 0)
(1.04059 -0.146537 0)
(1.02936 -0.160051 0)
(1.01602 -0.171695 0)
(1.00097 -0.180393 0)
(0.985416 -0.184748 0)
(0.971628 -0.184337 0)
(0.962521 -0.181594 0)
(0.956416 -0.180915 0)
(0.942438 -0.182075 0)
(0.918861 -0.181095 0)
(0.89982 -0.17943 0)
(0.889015 -0.177737 0)
(0.880276 -0.174708 0)
(1.01649 -0.00214288 0)
(1.01762 -0.00720436 0)
(1.01965 -0.0113961 0)
(1.02246 -0.0160192 0)
(1.02611 -0.0204469 0)
(1.0305 -0.0252735 0)
(1.03557 -0.0305606 0)
(1.04116 -0.0366402 0)
(1.04707 -0.0437931 0)
(1.05294 -0.0523257 0)
(1.05837 -0.0624832 0)
(1.06283 -0.0744161 0)
(1.06579 -0.0881281 0)
(1.06669 -0.103453 0)
(1.06498 -0.120055 0)
(1.06022 -0.13741 0)
(1.05228 -0.154823 0)
(1.04138 -0.171512 0)
(1.02768 -0.186597 0)
(1.01112 -0.199427 0)
(0.991775 -0.210855 0)
(0.969739 -0.222406 0)
(0.944348 -0.232239 0)
(0.916403 -0.235227 0)
(0.895398 -0.230969 0)
(0.888601 -0.225361 0)
(0.883969 -0.219457 0)
(0.873626 -0.212059 0)
(0.864051 -0.205776 0)
(1.01712 -0.00217016 0)
(1.01826 -0.00726803 0)
(1.02033 -0.0114673 0)
(1.02321 -0.0160674 0)
(1.02698 -0.020414 0)
(1.03153 -0.0251135 0)
(1.03685 -0.03022 0)
(1.04283 -0.0360857 0)
(1.04926 -0.0430246 0)
(1.05587 -0.0513954 0)
(1.06225 -0.0615149 0)
(1.06791 -0.0736186 0)
(1.07231 -0.0878114 0)
(1.07479 -0.104045 0)
(1.07472 -0.122103 0)
(1.07154 -0.14153 0)
(1.06496 -0.161626 0)
(1.05492 -0.181605 0)
(1.04134 -0.200608 0)
(1.02415 -0.217463 0)
(1.00423 -0.230417 0)
(0.984111 -0.237232 0)
(0.966669 -0.237626 0)
(0.953882 -0.236712 0)
(0.9388 -0.239977 0)
(0.911012 -0.242239 0)
(0.880792 -0.240236 0)
(0.862242 -0.238067 0)
(0.848886 -0.234038 0)
(1.0177 -0.00219558 0)
(1.01884 -0.00732432 0)
(1.02096 -0.011527 0)
(1.02389 -0.0161015 0)
(1.02775 -0.0203654 0)
(1.03244 -0.0249342 0)
(1.03798 -0.0298499 0)
(1.04428 -0.0354803 0)
(1.0512 -0.042165 0)
(1.05848 -0.0503043 0)
(1.06578 -0.0602757 0)
(1.07262 -0.072399 0)
(1.07843 -0.0868841 0)
(1.08256 -0.103798 0)
(1.08429 -0.123035 0)
(1.08302 -0.144254 0)
(1.0782 -0.16685 0)
(1.06954 -0.190064 0)
(1.05681 -0.212991 0)
(1.0397 -0.234386 0)
(1.01819 -0.253452 0)
(0.992498 -0.271684 0)
(0.962319 -0.290271 0)
(0.926913 -0.304045 0)
(0.891184 -0.305261 0)
(0.869485 -0.298417 0)
(0.860323 -0.292081 0)
(0.84584 -0.283427 0)
(0.828924 -0.274005 0)
(1.01822 -0.00221869 0)
(1.01938 -0.00737362 0)
(1.02153 -0.0115775 0)
(1.0245 -0.0161257 0)
(1.02844 -0.0203084 0)
(1.03324 -0.0247473 0)
(1.03896 -0.0294689 0)
(1.04555 -0.0348526 0)
(1.0529 -0.0412556 0)
(1.0608 -0.0491124 0)
(1.06894 -0.0588531 0)
(1.07688 -0.0708738 0)
(1.08407 -0.0854804 0)
(1.08985 -0.102843 0)
(1.0935 -0.122973 0)
(1.09431 -0.145677 0)
(1.0916 -0.17049 0)
(1.08487 -0.196713 0)
(1.07368 -0.223529 0)
(1.05743 -0.249848 0)
(1.03602 -0.274027 0)
(1.01103 -0.293283 0)
(0.985302 -0.303829 0)
(0.961897 -0.306293 0)
(0.941541 -0.310817 0)
(0.91177 -0.320053 0)
(0.868675 -0.321893 0)
(0.833911 -0.318751 0)
(0.812135 -0.314538 0)
(1.0187 -0.00223938 0)
(1.01986 -0.00741656 0)
(1.02205 -0.011621 0)
(1.02505 -0.016143 0)
(1.02905 -0.0202478 0)
(1.03394 -0.0245612 0)
(1.03982 -0.0290908 0)
(1.04665 -0.0342245 0)
(1.05438 -0.0403307 0)
(1.06284 -0.0478723 0)
(1.07174 -0.0573235 0)
(1.0807 -0.069144 0)
(1.0892 -0.0837198 0)
(1.09661 -0.10132 0)
(1.1022 -0.122072 0)
(1.10519 -0.145933 0)
(1.10486 -0.172598 0)
(1.10052 -0.201487 0)
(1.09152 -0.231911 0)
(1.07706 -0.262908 0)
(1.05661 -0.29291 0)
(1.02989 -0.321222 0)
(0.996248 -0.350182 0)
(0.954836 -0.379572 0)
(0.906028 -0.397817 0)
(0.8612 -0.396249 0)
(0.836421 -0.388454 0)
(0.817389 -0.381288 0)
(0.789646 -0.36858 0)
(1.01913 -0.00225779 0)
(1.0203 -0.00745399 0)
(1.02251 -0.011659 0)
(1.02554 -0.0161559 0)
(1.0296 -0.0201874 0)
(1.03455 -0.0243817 0)
(1.04056 -0.0287253 0)
(1.0476 -0.0336126 0)
(1.05565 -0.0394175 0)
(1.0646 -0.0466258 0)
(1.0742 -0.0557466 0)
(1.0841 -0.0672908 0)
(1.09384 -0.0817122 0)
(1.10282 -0.0993708 0)
(1.1103 -0.120504 0)
(1.11551 -0.145196 0)
(1.1177 -0.173317 0)
(1.11608 -0.20446 0)
(1.10977 -0.238084 0)
(1.09785 -0.273531 0)
(1.07942 -0.309606 0)
(1.05414 -0.344098 0)
(1.02354 -0.372617 0)
(0.990429 -0.389024 0)
(0.958253 -0.396455 0)
(0.924873 -0.412395 0)
(0.873684 -0.429027 0)
(0.813155 -0.42862 0)
(0.771617 -0.424295 0)
(1.01951 -0.0022742 0)
(1.0207 -0.00748678 0)
(1.02293 -0.0116926 0)
(1.02597 -0.0161658 0)
(1.03007 -0.0201295 0)
(1.03508 -0.0242126 0)
(1.04119 -0.0283792 0)
(1.0484 -0.0330287 0)
(1.05674 -0.0385358 0)
(1.06612 -0.0454032 0)
(1.07634 -0.0541673 0)
(1.08712 -0.0653806 0)
(1.09801 -0.079555 0)
(1.10845 -0.0971277 0)
(1.11775 -0.118431 0)
(1.12513 -0.143659 0)
(1.12987 -0.172846 0)
(1.13114 -0.205792 0)
(1.12794 -0.24212 0)
(1.1192 -0.281426 0)
(1.10399 -0.322843 0)
(1.08104 -0.364493 0)
(1.04859 -0.406095 0)
(1.00534 -0.451868 0)
(0.94985 -0.49894 0)
(0.882426 -0.523322 0)
(0.823732 -0.518342 0)
(0.789239 -0.512567 0)
(0.751142 -0.502383 0)
(1.01986 -0.00228886 0)
(1.02106 -0.00751564 0)
(1.0233 -0.0117225 0)
(1.02635 -0.016174 0)
(1.03049 -0.0200756 0)
(1.03554 -0.0240561 0)
(1.04173 -0.0280566 0)
(1.04909 -0.0324805 0)
(1.05767 -0.0376988 0)
(1.06742 -0.044227 0)
(1.07821 -0.0526217 0)
(1.08976 -0.0634699 0)
(1.1017 -0.077332 0)
(1.1135 -0.0947071 0)
(1.1245 -0.116007 0)
(1.13397 -0.141521 0)
(1.1412 -0.171421 0)
(1.14543 -0.205708 0)
(1.14559 -0.2442 0)
(1.14051 -0.286695 0)
(1.12917 -0.332901 0)
(1.10999 -0.381746 0)
(1.08131 -0.430537 0)
(1.04484 -0.472824 0)
(1.00296 -0.498738 0)
(0.958476 -0.517508 0)
(0.904041 -0.555547 0)
(0.820115 -0.580066 0)
(0.735011 -0.57453 0)
(1.02018 -0.00230195 0)
(1.02138 -0.00754113 0)
(1.02364 -0.0117494 0)
(1.02669 -0.016181 0)
(1.03086 -0.0200265 0)
(1.03593 -0.0239132 0)
(1.0422 -0.0277599 0)
(1.04968 -0.0319724 0)
(1.05846 -0.0369154 0)
(1.06854 -0.0431131 0)
(1.07981 -0.0511379 0)
(1.09206 -0.0616034 0)
(1.10494 -0.0751093 0)
(1.11798 -0.0922038 0)
(1.13056 -0.113364 0)
(1.142 -0.138961 0)
(1.15161 -0.169269 0)
(1.15873 -0.204458 0)
(1.16237 -0.244567 0)
(1.16124 -0.2896 0)
(1.15428 -0.339603 0)
(1.14021 -0.394117 0)
(1.11618 -0.451402 0)
(1.07815 -0.511998 0)
(1.02486 -0.584584 0)
(0.95273 -0.663387 0)
(0.855878 -0.699239 0)
(0.768865 -0.691154 0)
(0.71129 -0.689227 0)
(1.02046 -0.00231362 0)
(1.02166 -0.00756367 0)
(1.02393 -0.0117735 0)
(1.02699 -0.0161874 0)
(1.03118 -0.0199825 0)
(1.03628 -0.0237841 0)
(1.0426 -0.0274896 0)
(1.05017 -0.0315065 0)
(1.05913 -0.0361906 0)
(1.06948 -0.0420728 0)
(1.08118 -0.0497363 0)
(1.09404 -0.0598151 0)
(1.10776 -0.0729395 0)
(1.12192 -0.0896971 0)
(1.13595 -0.110618 0)
(1.14921 -0.136138 0)
(1.16107 -0.166612 0)
(1.17092 -0.20233 0)
(1.17795 -0.243531 0)
(1.18095 -0.290462 0)
(1.1787 -0.343355 0)
(1.16999 -0.402444 0)
(1.1525 -0.467902 0)
(1.12285 -0.537328 0)
(1.08141 -0.600525 0)
(1.02913 -0.641763 0)
(0.967908 -0.686511 0)
(0.877018 -0.770698 0)
(0.730909 -0.798185 0)
(1.02071 -0.00232399 0)
(1.02192 -0.00758364 0)
(1.02419 -0.0117952 0)
(1.02726 -0.0161933 0)
(1.03146 -0.0199436 0)
(1.03657 -0.0236686 0)
(1.04293 -0.0272459 0)
(1.05058 -0.0310832 0)
(1.05969 -0.035527 0)
(1.07028 -0.0411124 0)
(1.08235 -0.0484294 0)
(1.09574 -0.0581277 0)
(1.11021 -0.0708608 0)
(1.12536 -0.0872476 0)
(1.1407 -0.107858 0)
(1.15562 -0.13318 0)
(1.16956 -0.163631 0)
(1.18197 -0.199585 0)
(1.19216 -0.241409 0)
(1.19922 -0.289601 0)
(1.20193 -0.344645 0)
(1.1988 -0.406924 0)
(1.18881 -0.477559 0)
(1.16831 -0.556517 0)
(1.12691 -0.643747 0)
(1.06459 -0.758836 0)
(0.981066 -0.904273 0)
(0.829238 -0.97492 0)
(0.65276 -0.957889 0)
(1.02093 -0.00233317 0)
(1.02214 -0.00760131 0)
(1.02442 -0.0118147 0)
(1.02749 -0.0161989 0)
(1.0317 -0.0199097 0)
(1.03682 -0.0235661 0)
(1.04322 -0.0270276 0)
(1.05093 -0.0307019 0)
(1.06016 -0.0349249 0)
(1.07096 -0.0402345 0)
(1.08334 -0.047225 0)
(1.09719 -0.0565572 0)
(1.11232 -0.0689024 0)
(1.12836 -0.0849036 0)
(1.14486 -0.105162 0)
(1.16127 -0.130201 0)
(1.17709 -0.160488 0)
(1.19187 -0.196461 0)
(1.20498 -0.238552 0)
(1.21578 -0.287413 0)
(1.22346 -0.343883 0)
(1.22624 -0.408382 0)
(1.223 -0.482286 0)
(1.21295 -0.56965 0)
(1.18984 -0.670069 0)
(1.14936 -0.764284 0)
(1.0876 -0.830648 0)
(1.00433 -0.946135 0)
(0.821868 -1.13645 0)
(1.02113 -0.00234125 0)
(1.02234 -0.00761695 0)
(1.02463 -0.0118322 0)
(1.0277 -0.0162043 0)
(1.03191 -0.0198802 0)
(1.03704 -0.0234757 0)
(1.04347 -0.0268337 0)
(1.05123 -0.0303608 0)
(1.06055 -0.034383 0)
(1.07152 -0.0394392 0)
(1.08418 -0.0461257 0)
(1.09844 -0.0551118 0)
(1.11413 -0.0670818 0)
(1.13096 -0.0826969 0)
(1.14848 -0.102581 0)
(1.16622 -0.127284 0)
(1.18371 -0.157305 0)
(1.20062 -0.19313 0)
(1.21642 -0.235233 0)
(1.23056 -0.284296 0)
(1.24284 -0.341445 0)
(1.25167 -0.407443 0)
(1.25513 -0.48322 0)
(1.25536 -0.573514 0)
(1.24987 -0.681674 0)
(1.21484 -0.799517 0)
(1.15042 -0.97288 0)
(1.07735 -1.28514 0)
(0.76061 -1.41098 0)
(0.997432 -0.00394674 0)
(0.997935 -0.0038175 0)
(0.99831 -0.00368334 0)
(0.998569 -0.00354665 0)
(0.998719 -0.00340928 0)
(0.998755 -0.00327249 0)
(0.998663 -0.00313748 0)
(0.998418 -0.0030056 0)
(0.997986 -0.00287846 0)
(0.997327 -0.00275798 0)
(0.9964 -0.00264633 0)
(0.995174 -0.00254582 0)
(0.993636 -0.00245851 0)
(0.991801 -0.00238575 0)
(0.989724 -0.00232762 0)
(0.987505 -0.00228232 0)
(0.985283 -0.00224577 0)
(0.983229 -0.00221161 0)
(0.981524 -0.00217166 0)
(0.999096 -0.00474276 0)
(0.998431 -0.00467351 0)
(0.997956 -0.0045948 0)
(0.997638 -0.00450668 0)
(0.997462 -0.00440798 0)
(0.997427 -0.0042982 0)
(0.997546 -0.00417704 0)
(0.997849 -0.00404397 0)
(0.998375 -0.0038982 0)
(0.99917 -0.00373867 0)
(1.00028 -0.00356408 0)
(1.00173 -0.00337323 0)
(1.00353 -0.00316543 0)
(1.00563 -0.00294118 0)
(1.00795 -0.002703 0)
(1.01034 -0.00245619 0)
(1.0126 -0.00220924 0)
(1.01453 -0.00197364 0)
(1.01591 -0.00176273 0)
(0.993415 -0.016133 0)
(0.993687 -0.0157853 0)
(0.993805 -0.0154452 0)
(0.993801 -0.0151105 0)
(0.993692 -0.0147806 0)
(0.993477 -0.0144539 0)
(0.993142 -0.014129 0)
(0.992663 -0.0138043 0)
(0.992003 -0.013479 0)
(0.991123 -0.0131524 0)
(0.989989 -0.0128245 0)
(0.988578 -0.0124965 0)
(0.986899 -0.0121699 0)
(0.984998 -0.0118469 0)
(0.982975 -0.0115293 0)
(0.980975 -0.0112174 0)
(0.979185 -0.0109093 0)
(0.9778 -0.0105999 0)
(0.976993 -0.0102814 0)
(0.991964 -0.0184008 0)
(0.991475 -0.0181932 0)
(0.991128 -0.0179709 0)
(0.990887 -0.0177369 0)
(0.990734 -0.0174904 0)
(0.990666 -0.0172305 0)
(0.990699 -0.0169565 0)
(0.99086 -0.0166671 0)
(0.991193 -0.0163603 0)
(0.991748 -0.0160335 0)
(0.99258 -0.0156831 0)
(0.993733 -0.015304 0)
(0.995222 -0.0148894 0)
(0.997018 -0.014432 0)
(0.999032 -0.0139245 0)
(1.00111 -0.0133621 0)
(1.00303 -0.0127448 0)
(1.00456 -0.0120798 0)
(1.00548 -0.0113818 0)
(0.985403 -0.0255325 0)
(0.985351 -0.024848 0)
(0.985171 -0.0241483 0)
(0.984884 -0.0234308 0)
(0.9845 -0.0226961 0)
(0.984013 -0.0219445 0)
(0.983405 -0.0211772 0)
(0.982649 -0.0203964 0)
(0.981704 -0.0196061 0)
(0.980524 -0.0188122 0)
(0.979058 -0.0180233 0)
(0.977268 -0.0172516 0)
(0.975141 -0.0165122 0)
(0.972716 -0.0158229 0)
(0.9701 -0.0152019 0)
(0.967478 -0.0146641 0)
(0.965111 -0.0142166 0)
(0.963291 -0.0138552 0)
(0.962287 -0.0135613 0)
(0.98 -0.0305017 0)
(0.979243 -0.0300677 0)
(0.978575 -0.0296201 0)
(0.977977 -0.0291635 0)
(0.977443 -0.0286977 0)
(0.976986 -0.0282237 0)
(0.976635 -0.0277426 0)
(0.976438 -0.0272558 0)
(0.976463 -0.0267637 0)
(0.976794 -0.026265 0)
(0.977527 -0.0257555 0)
(0.978752 -0.0252264 0)
(0.980527 -0.0246634 0)
(0.982848 -0.0240467 0)
(0.985611 -0.0233523 0)
(0.988598 -0.0225566 0)
(0.991475 -0.0216429 0)
(0.993838 -0.020608 0)
(0.995293 -0.0194676 0)
(0.972372 -0.0395962 0)
(0.972008 -0.0384863 0)
(0.971549 -0.0373541 0)
(0.971021 -0.0362 0)
(0.970439 -0.035028 0)
(0.969804 -0.0338407 0)
(0.969105 -0.0326402 0)
(0.968315 -0.0314289 0)
(0.967383 -0.0302093 0)
(0.966239 -0.028985 0)
(0.964788 -0.0277615 0)
(0.962926 -0.0265479 0)
(0.96056 -0.0253584 0)
(0.957651 -0.0242126 0)
(0.954261 -0.0231347 0)
(0.95059 -0.0221489 0)
(0.946998 -0.0212727 0)
(0.943961 -0.0205081 0)
(0.941973 -0.0198362 0)
(0.964016 -0.046651 0)
(0.962882 -0.0460292 0)
(0.961848 -0.045378 0)
(0.960896 -0.0447038 0)
(0.960022 -0.0440057 0)
(0.959238 -0.0432842 0)
(0.95857 -0.0425402 0)
(0.958062 -0.0417746 0)
(0.957781 -0.0409881 0)
(0.957819 -0.0401802 0)
(0.95829 -0.0393488 0)
(0.959325 -0.0384873 0)
(0.961037 -0.0375825 0)
(0.96348 -0.0366126 0)
(0.966589 -0.0355468 0)
(0.970127 -0.0343486 0)
(0.973663 -0.0329839 0)
(0.97662 -0.0314337 0)
(0.978394 -0.0297051 0)
(0.956316 -0.0591778 0)
(0.955443 -0.0576771 0)
(0.95452 -0.0561388 0)
(0.953573 -0.0545641 0)
(0.952613 -0.052957 0)
(0.951644 -0.0513193 0)
(0.950657 -0.0496513 0)
(0.949629 -0.0479523 0)
(0.948509 -0.046221 0)
(0.947219 -0.044455 0)
(0.945641 -0.0426524 0)
(0.943621 -0.040814 0)
(0.940991 -0.0389465 0)
(0.93761 -0.0370658 0)
(0.93344 -0.0352002 0)
(0.92863 -0.0333879 0)
(0.923583 -0.0316702 0)
(0.918949 -0.0300778 0)
(0.915498 -0.0286155 0)
(0.946282 -0.0678986 0)
(0.944567 -0.066952 0)
(0.942967 -0.0659444 0)
(0.941455 -0.064882 0)
(0.940022 -0.0637637 0)
(0.938669 -0.0625896 0)
(0.937409 -0.0613607 0)
(0.936266 -0.0600787 0)
(0.935287 -0.0587457 0)
(0.934548 -0.0573649 0)
(0.934161 -0.0559396 0)
(0.934277 -0.0544722 0)
(0.935072 -0.0529605 0)
(0.936699 -0.0513935 0)
(0.939215 -0.0497462 0)
(0.942481 -0.047978 0)
(0.946085 -0.0460383 0)
(0.94934 -0.0438819 0)
(0.951426 -0.0414922 0)
(0.937114 -0.0833895 0)
(0.935435 -0.0813551 0)
(0.933734 -0.0792545 0)
(0.932035 -0.0770913 0)
(0.930352 -0.0748692 0)
(0.92869 -0.0725895 0)
(0.927047 -0.0702524 0)
(0.925408 -0.0678583 0)
(0.923741 -0.0654065 0)
(0.921988 -0.0628962 0)
(0.920047 -0.060326 0)
(0.917767 -0.0576953 0)
(0.914946 -0.0550072 0)
(0.911358 -0.052274 0)
(0.90683 -0.0495236 0)
(0.901367 -0.0468041 0)
(0.895287 -0.0441805 0)
(0.889308 -0.0417183 0)
(0.884456 -0.0394553 0)
(0.92585 -0.0942827 0)
(0.923209 -0.0928325 0)
(0.920705 -0.0912638 0)
(0.918312 -0.0895877 0)
(0.916017 -0.0878113 0)
(0.913816 -0.0859432 0)
(0.911715 -0.0839936 0)
(0.90973 -0.0819725 0)
(0.907893 -0.0798903 0)
(0.906258 -0.0777572 0)
(0.904916 -0.0755838 0)
(0.904008 -0.0733803 0)
(0.903726 -0.0711537 0)
(0.904296 -0.0689029 0)
(0.905909 -0.0666089 0)
(0.908591 -0.0642253 0)
(0.912052 -0.0616735 0)
(0.915578 -0.0588573 0)
(0.918114 -0.0557001 0)
(0.914741 -0.113262 0)
(0.91185 -0.110529 0)
(0.908994 -0.107696 0)
(0.9062 -0.104771 0)
(0.903491 -0.101756 0)
(0.900879 -0.098646 0)
(0.898367 -0.0954399 0)
(0.895951 -0.0921346 0)
(0.893612 -0.0887279 0)
(0.891309 -0.0852177 0)
(0.888967 -0.0816017 0)
(0.886458 -0.0778773 0)
(0.883577 -0.0740435 0)
(0.880047 -0.0701056 0)
(0.875552 -0.0660862 0)
(0.869868 -0.0620394 0)
(0.863068 -0.0580614 0)
(0.85577 -0.0542806 0)
(0.849205 -0.0508167 0)
(0.901996 -0.12787 0)
(0.898008 -0.125584 0)
(0.894207 -0.123061 0)
(0.890583 -0.120334 0)
(0.887115 -0.117423 0)
(0.883799 -0.114357 0)
(0.880641 -0.111165 0)
(0.877648 -0.107874 0)
(0.874838 -0.104512 0)
(0.872245 -0.101105 0)
(0.869928 -0.0976791 0)
(0.867988 -0.0942612 0)
(0.866596 -0.0908765 0)
(0.865996 -0.0875462 0)
(0.866494 -0.0842766 0)
(0.868343 -0.081039 0)
(0.871534 -0.0777448 0)
(0.875515 -0.0742355 0)
(0.879062 -0.0703184 0)
(0.888316 -0.151064 0)
(0.883605 -0.147252 0)
(0.879055 -0.143288 0)
(0.874672 -0.13916 0)
(0.870503 -0.134877 0)
(0.866574 -0.130433 0)
(0.862892 -0.125825 0)
(0.859466 -0.121056 0)
(0.856288 -0.11613 0)
(0.853338 -0.111052 0)
(0.850568 -0.105826 0)
(0.847889 -0.100457 0)
(0.845137 -0.0949463 0)
(0.842041 -0.0892953 0)
(0.838203 -0.0835135 0)
(0.833148 -0.0776407 0)
(0.826529 -0.0717817 0)
(0.818527 -0.0661288 0)
(0.810299 -0.0609416 0)
(0.873168 -0.171345 0)
(0.867078 -0.167663 0)
(0.861246 -0.163472 0)
(0.855747 -0.158904 0)
(0.850566 -0.153984 0)
(0.845701 -0.148786 0)
(0.841179 -0.143367 0)
(0.837003 -0.137787 0)
(0.83319 -0.132106 0)
(0.829755 -0.126385 0)
(0.826724 -0.120683 0)
(0.824148 -0.115065 0)
(0.822129 -0.109592 0)
(0.820854 -0.104331 0)
(0.820634 -0.0993385 0)
(0.821894 -0.0946493 0)
(0.825017 -0.0902256 0)
(0.829946 -0.0859027 0)
(0.835634 -0.0813413 0)
(0.856023 -0.200163 0)
(0.848347 -0.194483 0)
(0.841103 -0.188535 0)
(0.834237 -0.182187 0)
(0.82782 -0.175498 0)
(0.821934 -0.16848 0)
(0.816587 -0.161154 0)
(0.811818 -0.153568 0)
(0.807633 -0.14576 0)
(0.804035 -0.137776 0)
(0.800997 -0.129656 0)
(0.798465 -0.121436 0)
(0.796324 -0.113141 0)
(0.794357 -0.104788 0)
(0.792186 -0.0963857 0)
(0.789206 -0.0879477 0)
(0.784632 -0.0795512 0)
(0.777838 -0.0713875 0)
(0.769171 -0.0638645 0)
(0.837156 -0.228528 0)
(0.827371 -0.222584 0)
(0.818014 -0.215535 0)
(0.80926 -0.207741 0)
(0.801231 -0.199275 0)
(0.793893 -0.190232 0)
(0.787358 -0.180757 0)
(0.781638 -0.170949 0)
(0.776767 -0.16094 0)
(0.772749 -0.150856 0)
(0.769591 -0.140837 0)
(0.76729 -0.131026 0)
(0.765864 -0.121578 0)
(0.765384 -0.112649 0)
(0.766041 -0.104404 0)
(0.768223 -0.0969986 0)
(0.772566 -0.0905226 0)
(0.7797 -0.0849711 0)
(0.789544 -0.0799685 0)
(0.815642 -0.266108 0)
(0.802872 -0.25741 0)
(0.790804 -0.247968 0)
(0.77967 -0.237628 0)
(0.769377 -0.226369 0)
(0.760239 -0.214401 0)
(0.752245 -0.201768 0)
(0.745513 -0.188653 0)
(0.740072 -0.175201 0)
(0.735962 -0.161568 0)
(0.733167 -0.147905 0)
(0.731657 -0.134349 0)
(0.731337 -0.121011 0)
(0.732033 -0.107977 0)
(0.733417 -0.0952966 0)
(0.734901 -0.0829665 0)
(0.735465 -0.0710571 0)
(0.733742 -0.0596338 0)
(0.728151 -0.0491008 0)
(0.792533 -0.306189 0)
(0.775668 -0.296574 0)
(0.760085 -0.285086 0)
(0.745355 -0.27178 0)
(0.732245 -0.257251 0)
(0.720587 -0.241454 0)
(0.710673 -0.224758 0)
(0.702549 -0.207369 0)
(0.696315 -0.189542 0)
(0.691971 -0.171555 0)
(0.689534 -0.153681 0)
(0.688949 -0.136214 0)
(0.690157 -0.119466 0)
(0.693088 -0.10377 0)
(0.697739 -0.0894765 0)
(0.704273 -0.0770115 0)
(0.713289 -0.0666239 0)
(0.725566 -0.0587451 0)
(0.74297 -0.0533769 0)
(0.765801 -0.356968 0)
(0.744567 -0.344399 0)
(0.723578 -0.329014 0)
(0.704867 -0.312067 0)
(0.687777 -0.292875 0)
(0.673024 -0.27218 0)
(0.660647 -0.250166 0)
(0.650859 -0.22718 0)
(0.643691 -0.203619 0)
(0.639254 -0.17981 0)
(0.637503 -0.156118 0)
(0.638428 -0.132884 0)
(0.641931 -0.110426 0)
(0.647856 -0.0890197 0)
(0.655905 -0.0689032 0)
(0.66556 -0.0500545 0)
(0.675526 -0.0327489 0)
(0.684692 -0.0167637 0)
(0.688576 -0.00217042 0)
(0.74002 -0.41469 0)
(0.709785 -0.398861 0)
(0.683256 -0.380778 0)
(0.658259 -0.358509 0)
(0.636405 -0.333826 0)
(0.617647 -0.306881 0)
(0.602323 -0.278121 0)
(0.590464 -0.248225 0)
(0.582294 -0.217539 0)
(0.577701 -0.18659 0)
(0.576778 -0.155823 0)
(0.579437 -0.125704 0)
(0.58562 -0.0967377 0)
(0.5952 -0.0695017 0)
(0.608043 -0.0445718 0)
(0.623927 -0.0230485 0)
(0.643824 -0.00526478 0)
(0.666893 0.00724212 0)
(0.69815 0.0131933 0)
(0.707164 -0.483474 0)
(0.670915 -0.46582 0)
(0.635179 -0.441026 0)
(0.603455 -0.412588 0)
(0.575818 -0.380641 0)
(0.552623 -0.345542 0)
(0.533931 -0.308736 0)
(0.520094 -0.270374 0)
(0.510719 -0.231294 0)
(0.506094 -0.191926 0)