/*--------------------------------*- C++ -*----------------------------------*\
  =========                 |
  \\      /  F ield         | OpenFOAM: The Open Source CFD Toolbox
   \\    /   O peration     | Website:  https://openfoam.org
    \\  /    A nd           | Version:  10
     \\/     M anipulation  |
\*---------------------------------------------------------------------------*/
FoamFile
{
    format      ascii;
    class       volVectorField;
    location    "0";
    object      U;
}
// * * * * * * * * * * * * * * * * * * * * * * * * * * * * * * * * * * * * * //

dimensions      [0 1 -1 0 0 0 0];

internalField   nonuniform List<vector> 
18483
(
(1 -0.000184121 0)
(1.00001 -0.000660427 0)
(1.00001 -0.00104929 0)
(1.00001 -0.00146052 0)
(1.00001 -0.00184516 0)
(1.00002 -0.00220574 0)
(1.00002 -0.00252595 0)
(1.00003 -0.00279553 0)
(1.00003 -0.00300649 0)
(1.00003 -0.00315477 0)
(1.00004 -0.00324268 0)
(1.00005 -0.00327485 0)
(1.00007 -0.00326855 0)
(1.00009 -0.00328079 0)
(1.00012 -0.00337611 0)
(1.00015 -0.00358171 0)
(1.00013 -0.00384905 0)
(0.99983 -0.00408266 0)
(0.998624 -0.00419422 0)
(0.995698 -0.00414143 0)
(0.991379 -0.0039574 0)
(0.987939 -0.00378018 0)
(0.987458 -0.00365446 0)
(0.989503 -0.00350009 0)
(0.992307 -0.00329881 0)
(0.9947 -0.00307658 0)
(0.996385 -0.00286192 0)
(0.997469 -0.00267109 0)
(0.998136 -0.00250956 0)
(1.0005 -0.000524946 0)
(1.00051 -0.00186347 0)
(1.00056 -0.00294247 0)
(1.0006 -0.00407541 0)
(1.00064 -0.00511098 0)
(1.00065 -0.00606209 0)
(1.00062 -0.0068839 0)
(1.00056 -0.00754554 0)
(1.00046 -0.00802121 0)
(1.00033 -0.00829721 0)
(1.00016 -0.0083803 0)
(0.99998 -0.00831736 0)
(0.999821 -0.00813791 0)
(0.999718 -0.00776618 0)
(0.999683 -0.00708317 0)
(0.999652 -0.00602106 0)
(0.999554 -0.00465298 0)
(0.999514 -0.00319276 0)
(1.00015 -0.00187185 0)
(1.00254 -0.000912084 0)
(1.00683 -0.000503042 0)
(1.01067 -0.000436401 0)
(1.01124 -0.000427662 0)
(1.00866 -0.000451575 0)
(1.00512 -0.000486142 0)
(1.00218 -0.00050944 0)
(1.0002 -0.000494852 0)
(0.999 -0.00044668 0)
(0.998302 -0.000370735 0)
(1.00141 -0.000842301 0)
(1.00144 -0.00295829 0)
(1.00156 -0.00465371 0)
(1.00165 -0.00644037 0)
(1.00172 -0.0080563 0)
(1.00171 -0.00953581 0)
(1.00161 -0.0108056 0)
(1.00139 -0.0118174 0)
(1.00106 -0.0125355 0)
(1.00061 -0.0129526 0)
(1.00009 -0.0130696 0)
(0.999534 -0.0128973 0)
(0.99902 -0.0124496 0)
(0.998536 -0.0117644 0)
(0.997977 -0.0110527 0)
(0.997255 -0.0106215 0)
(0.996364 -0.0105396 0)
(0.995284 -0.0106072 0)
(0.993752 -0.0105581 0)
(0.991279 -0.0100791 0)
(0.987852 -0.00886241 0)
(0.984898 -0.00708283 0)
(0.984363 -0.00531246 0)
(0.986272 -0.00379201 0)
(0.98892 -0.00250637 0)
(0.991046 -0.00144456 0)
(0.992388 -0.000574896 0)
(0.993127 0.000137172 0)
(0.99349 0.000719599 0)
(1.00257 -0.00115124 0)
(1.00265 -0.00401136 0)
(1.00284 -0.00630382 0)
(1.003 -0.00873591 0)
(1.0031 -0.0109358 0)
(1.00308 -0.0129712 0)
(1.00288 -0.0147382 0)
(1.00248 -0.0161802 0)
(1.00186 -0.0172399 0)
(1.00107 -0.0178802 0)
(1.00015 -0.0180731 0)
(0.999176 -0.0178265 0)
(0.998164 -0.0172523 0)
(0.997133 -0.0165209 0)
(0.996127 -0.0156768 0)
(0.995262 -0.0144949 0)
(0.99457 -0.0127586 0)
(0.993969 -0.010648 0)
(0.993537 -0.00854187 0)
(0.9938 -0.00675715 0)
(0.995361 -0.00558776 0)
(0.997456 -0.00501682 0)
(0.998036 -0.00459333 0)
(0.996344 -0.00407215 0)
(0.993705 -0.00352608 0)
(0.991445 -0.00298937 0)
(0.989917 -0.00246949 0)
(0.988968 -0.001975 0)
(0.988382 -0.00151103 0)
(1.00388 -0.00144679 0)
(1.00401 -0.0050187 0)
(1.00429 -0.00789598 0)
(1.00453 -0.0109726 0)
(1.00469 -0.01378 0)
(1.00467 -0.0164242 0)
(1.0044 -0.0187703 0)
(1.00383 -0.0207508 0)
(1.00295 -0.0222712 0)
(1.00177 -0.023267 0)
(1.00035 -0.0237256 0)
(0.99872 -0.0236984 0)
(0.996963 -0.0232534 0)
(0.995226 -0.0223971 0)
(0.993611 -0.0210872 0)
(0.992087 -0.0195133 0)
(0.990497 -0.0181387 0)
(0.988737 -0.0171394 0)
(0.986715 -0.0162873 0)
(0.984178 -0.0152881 0)
(0.980937 -0.0139206 0)
(0.977557 -0.0120725 0)
(0.975604 -0.0100711 0)
(0.975964 -0.00828762 0)
(0.977616 -0.00666851 0)
(0.979206 -0.00519207 0)
(0.980269 -0.00388864 0)
(0.980877 -0.00275939 0)
(0.981197 -0.00179657 0)
(1.00533 -0.00171256 0)
(1.00553 -0.0059299 0)
(1.0059 -0.00935621 0)
(1.00623 -0.0130523 0)
(1.00649 -0.0164716 0)
(1.0065 -0.0197595 0)
(1.00619 -0.022753 0)
(1.00548 -0.0253778 0)
(1.00433 -0.0275207 0)
(1.00272 -0.0291156 0)
(1.00071 -0.0301396 0)
(0.998415 -0.0305744 0)
(0.996002 -0.0303744 0)
(0.993597 -0.0295775 0)
(0.99122 -0.0283345 0)
(0.988878 -0.0267999 0)
(0.986683 -0.0248929 0)
(0.984734 -0.0223879 0)
(0.983098 -0.0194584 0)
(0.982159 -0.0165881 0)
(0.982507 -0.0141681 0)
(0.983832 -0.0124515 0)
(0.984375 -0.0112535 0)
(0.982816 -0.0101259 0)
(0.979953 -0.00905658 0)
(0.9773 -0.00810319 0)
(0.975421 -0.00720898 0)
(0.974198 -0.00635971 0)
(0.973397 -0.00555747 0)
(1.0069 -0.00193488 0)
(1.00717 -0.00669606 0)
(1.00766 -0.0106068 0)
(1.00813 -0.014868 0)
(1.00851 -0.0188733 0)
(1.00861 -0.0228108 0)
(1.00832 -0.0264988 0)
(1.00753 -0.0298647 0)
(1.00615 -0.0327829 0)
(1.00419 -0.0351512 0)
(1.00174 -0.0368642 0)
(0.998944 -0.0378341 0)
(0.995913 -0.0380389 0)
(0.99272 -0.0375698 0)
(0.989463 -0.0364917 0)
(0.986267 -0.0348329 0)
(0.983203 -0.0328436 0)
(0.980182 -0.0309689 0)
(0.977118 -0.029451 0)
(0.973886 -0.0280982 0)
(0.970164 -0.0265238 0)
(0.966024 -0.0244434 0)
(0.962747 -0.0219433 0)
(0.961725 -0.0194901 0)
(0.96247 -0.0172285 0)
(0.963452 -0.0150853 0)
(0.963982 -0.0131417 0)
(0.964126 -0.0114373 0)
(0.964063 -0.0099675 0)
(1.00852 -0.00210927 0)
(1.00889 -0.00729764 0)
(1.00952 -0.0116095 0)
(1.01016 -0.0163617 0)
(1.01073 -0.0209038 0)
(1.01098 -0.0254704 0)
(1.01079 -0.0298698 0)
(1.01 -0.0340278 0)
(1.00853 -0.0377908 0)
(1.00637 -0.0410097 0)
(1.00356 -0.0435398 0)
(1.00016 -0.0453039 0)
(0.996269 -0.0462813 0)
(0.99202 -0.0464855 0)
(0.987611 -0.0459289 0)
(0.983179 -0.0446949 0)
(0.978884 -0.0429168 0)
(0.974974 -0.0405195 0)
(0.971705 -0.0373639 0)
(0.969345 -0.0337387 0)
(0.968285 -0.0302403 0)
(0.968472 -0.0273542 0)
(0.968466 -0.0251605 0)
(0.966494 -0.0232348 0)
(0.962844 -0.021389 0)
(0.959294 -0.0197511 0)
(0.956719 -0.0182619 0)
(0.954975 -0.0168639 0)
(0.953762 -0.0155579 0)
(1.01012 -0.00223911 0)
(1.01059 -0.00774534 0)
(1.01137 -0.0123738 0)
(1.01223 -0.0175361 0)
(1.01301 -0.0225536 0)
(1.01349 -0.027705 0)
(1.01348 -0.0327931 0)
(1.01281 -0.0377414 0)
(1.01136 -0.0423787 0)
(1.00906 -0.0465478 0)
(1.00588 -0.0501011 0)
(1.00188 -0.0529324 0)
(0.997212 -0.0549284 0)
(0.992087 -0.0560033 0)
(0.986714 -0.0561468 0)
(0.981269 -0.0553638 0)
(0.975968 -0.053726 0)
(0.970982 -0.0515923 0)
(0.966294 -0.0494984 0)
(0.96172 -0.04765 0)
(0.956826 -0.0457288 0)
(0.951312 -0.0432652 0)
(0.946157 -0.0401399 0)
(0.943281 -0.0368674 0)
(0.942876 -0.0338268 0)
(0.94315 -0.0309173 0)
(0.942993 -0.028208 0)
(0.942478 -0.0257998 0)
(0.941843 -0.0236954 0)
(1.01163 -0.00233224 0)
(1.0122 -0.00806678 0)
(1.01315 -0.0129383 0)
(1.01423 -0.0184337 0)
(1.01527 -0.0238599 0)
(1.01602 -0.0295349 0)
(1.01626 -0.0352613 0)
(1.01579 -0.0409733 0)
(1.01445 -0.0465008 0)
(1.0121 -0.0516894 0)
(1.00872 -0.0563583 0)
(1.00438 -0.0603219 0)
(0.999241 -0.063397 0)
(0.99344 -0.0654652 0)
(0.987143 -0.0664983 0)
(0.980533 -0.0665166 0)
(0.973815 -0.0656181 0)
(0.967309 -0.0639191 0)
(0.961443 -0.061272 0)
(0.956612 -0.0575287 0)
(0.953186 -0.0531689 0)
(0.951389 -0.049087 0)
(0.950235 -0.0458369 0)
(0.94754 -0.0430845 0)
(0.942742 -0.0403971 0)
(0.937793 -0.0379446 0)
(0.934116 -0.0357495 0)
(0.931547 -0.0336948 0)
(0.929668 -0.0317832 0)
(1.01303 -0.00239792 0)
(1.01371 -0.00829259 0)
(1.01483 -0.0133472 0)
(1.01615 -0.0191078 0)
(1.01747 -0.0248762 0)
(1.01853 -0.0310072 0)
(1.01908 -0.0373097 0)
(1.01889 -0.0437384 0)
(1.01775 -0.0501267 0)
(1.01553 -0.0563107 0)
(1.01218 -0.0620754 0)
(1.00771 -0.0672034 0)
(1.00217 -0.0715102 0)
(0.99564 -0.0748555 0)
(0.98831 -0.0771516 0)
(0.980436 -0.0783537 0)
(0.972338 -0.0784011 0)
(0.964393 -0.0773262 0)
(0.956861 -0.0754886 0)
(0.949715 -0.0734593 0)
(0.942638 -0.0713932 0)
(0.935154 -0.0687888 0)
(0.927699 -0.0652038 0)
(0.922343 -0.0610913 0)
(0.920242 -0.0571833 0)
(0.919575 -0.0534608 0)
(0.918512 -0.0498908 0)
(0.917075 -0.0466713 0)
(0.915637 -0.0438295 0)
(1.01435 -0.00244411 0)
(1.01513 -0.00844826 0)
(1.01643 -0.0136377 0)
(1.018 -0.019606 0)
(1.01963 -0.0256553 0)
(1.02102 -0.0321748 0)
(1.02193 -0.038984 0)
(1.02209 -0.0460581 0)
(1.02128 -0.0532326 0)
(1.01933 -0.0603458 0)
(1.01614 -0.0671896 0)
(1.01161 -0.0735545 0)
(1.00576 -0.0792361 0)
(0.998696 -0.0840187 0)
(0.99063 -0.0877081 0)
(0.981832 -0.0901603 0)
(0.972577 -0.0912775 0)
(0.96312 -0.0910576 0)
(0.953885 -0.0895075 0)
(0.945545 -0.086499 0)
(0.938786 -0.0821525 0)
(0.934049 -0.0773374 0)
(0.930865 -0.0731684 0)
(0.927014 -0.069737 0)
(0.920789 -0.0663117 0)
(0.91385 -0.0629537 0)
(0.908502 -0.0599371 0)
(0.904735 -0.0570932 0)
(0.901892 -0.0544135 0)
(1.01559 -0.00247637 0)
(1.01647 -0.00855238 0)
(1.01795 -0.0138386 0)
(1.01977 -0.0199671 0)
(1.02171 -0.0262423 0)
(1.02347 -0.0330855 0)
(1.02477 -0.0403274 0)
(1.02533 -0.0479633 0)
(1.02492 -0.0558397 0)
(1.02333 -0.0638184 0)
(1.02037 -0.0717125 0)
(1.01595 -0.0793073 0)
(1.01006 -0.0863567 0)
(1.00277 -0.0925907 0)
(0.994231 -0.0977712 0)
(0.98459 -0.101727 0)
(0.974048 -0.104331 0)
(0.962914 -0.105478 0)
(0.951728 -0.105237 0)
(0.941005 -0.104099 0)
(0.930749 -0.102615 0)
(0.920396 -0.100598 0)
(0.909808 -0.0972159 0)
(0.900835 -0.0924357 0)
(0.895814 -0.0874599 0)
(0.893593 -0.0827806 0)
(0.891289 -0.0781503 0)
(0.888507 -0.0738603 0)
(0.885887 -0.0700521 0)
(1.01673 -0.00249833 0)
(1.01771 -0.00861825 0)
(1.01937 -0.0139722 0)
(1.02143 -0.0202223 0)
(1.02368 -0.0266745 0)
(1.02581 -0.0337815 0)
(1.02751 -0.0413849 0)
(1.02851 -0.0495027 0)
(1.02854 -0.058002 0)
(1.02735 -0.0667701 0)
(1.02475 -0.075633 0)
(1.02063 -0.0843733 0)
(1.01492 -0.0927445 0)
(1.00758 -0.100484 0)
(0.998658 -0.107336 0)
(0.98827 -0.113058 0)
(0.976637 -0.117392 0)
(0.96412 -0.120095 0)
(0.951319 -0.121033 0)
(0.939048 -0.120043 0)
(0.928099 -0.116958 0)
(0.919102 -0.112235 0)
(0.912357 -0.107302 0)
(0.906343 -0.103265 0)
(0.898237 -0.0993929 0)
(0.888462 -0.095113 0)
(0.880363 -0.0910613 0)
(0.874685 -0.0872231 0)
(0.870348 -0.0834827 0)
(1.01775 -0.00251242 0)
(1.01884 -0.00865553 0)
(1.02067 -0.0140554 0)
(1.02296 -0.0203954 0)
(1.02551 -0.0269827 0)
(1.028 -0.0343005 0)
(1.03011 -0.0422029 0)
(1.03155 -0.0507292 0)
(1.03205 -0.0597695 0)
(1.03134 -0.0692304 0)
(1.02922 -0.0789544 0)
(1.02553 -0.0887502 0)
(1.02012 -0.0984046 0)
(1.0129 -0.107668 0)
(1.00388 -0.116244 0)
(0.993131 -0.123802 0)
(0.980799 -0.130014 0)
(0.96714 -0.13462 0)
(0.952691 -0.1375 0)
(0.938129 -0.138808 0)
(0.923761 -0.139109 0)
(0.909353 -0.138657 0)
(0.894545 -0.136555 0)
(0.880514 -0.131851 0)
(0.870543 -0.125714 0)
(0.865358 -0.11978 0)
(0.861236 -0.113843 0)
(0.85643 -0.108019 0)
(0.851954 -0.102791 0)
(1.01868 -0.00252034 0)
(1.01987 -0.00867115 0)
(1.02185 -0.0141002 0)
(1.02436 -0.0205046 0)
(1.0272 -0.0271918 0)
(1.03003 -0.0346759 0)
(1.03255 -0.0428222 0)
(1.03444 -0.051688 0)
(1.03543 -0.0611848 0)
(1.03525 -0.0712387 0)
(1.03368 -0.0817205 0)
(1.03051 -0.0924782 0)
(1.02556 -0.103328 0)
(1.01871 -0.114029 0)
(1.00992 -0.124277 0)
(0.999133 -0.133734 0)
(0.986341 -0.142071 0)
(0.971749 -0.148982 0)
(0.95592 -0.154139 0)
(0.939659 -0.157075 0)
(0.923838 -0.157167 0)
(0.90935 -0.154182 0)
(0.897125 -0.149305 0)
(0.887101 -0.144778 0)
(0.876266 -0.140864 0)
(0.86269 -0.135985 0)
(0.849982 -0.130629 0)
(0.840919 -0.125511 0)
(0.834097 -0.120305 0)
(1.01952 -0.00252341 0)
(1.02079 -0.00867017 0)
(1.02292 -0.0141156 0)
(1.02565 -0.0205637 0)
(1.02876 -0.0273221 0)
(1.03193 -0.0349348 0)
(1.03483 -0.0432767 0)
(1.03717 -0.0524184 0)
(1.03866 -0.0622936 0)
(1.03903 -0.0728506 0)
(1.03804 -0.0839901 0)
(1.03545 -0.0955942 0)
(1.0311 -0.107507 0)
(1.02483 -0.119523 0)
(1.01647 -0.131386 0)
(1.00586 -0.142788 0)
(0.992934 -0.15338 0)
(0.977867 -0.162774 0)
(0.961087 -0.17053 0)
(0.943114 -0.176253 0)
(0.924333 -0.180101 0)
(0.904856 -0.182741 0)
(0.884627 -0.183745 0)
(0.864134 -0.18111 0)
(0.846563 -0.174647 0)
(0.835503 -0.167237 0)
(0.828228 -0.159901 0)
(0.820345 -0.152086 0)
(0.812697 -0.144733 0)
(1.02028 -0.00252281 0)
(1.02164 -0.00865666 0)
(1.0239 -0.0141085 0)
(1.02682 -0.0205839 0)
(1.03019 -0.0273902 0)
(1.03367 -0.0351004 0)
(1.03695 -0.0435957 0)
(1.03973 -0.0529589 0)
(1.04171 -0.063146 0)
(1.04262 -0.0741254 0)
(1.04221 -0.0858221 0)
(1.04027 -0.0981489 0)
(1.0366 -0.110991 0)
(1.03099 -0.124199 0)
(1.02322 -0.137576 0)
(1.0131 -0.150846 0)
(1.0005 -0.16367 0)
(0.985455 -0.175667 0)
(0.968145 -0.186375 0)
(0.948943 -0.195128 0)
(0.928528 -0.200973 0)
(0.908017 -0.202756 0)
(0.888798 -0.200311 0)
(0.872217 -0.196101 0)
(0.856894 -0.192829 0)
(0.83861 -0.188726 0)
(0.818778 -0.182345 0)
(0.803373 -0.175646 0)
(0.792186 -0.16865 0)
(1.02096 -0.00251962 0)
(1.02239 -0.00863407 0)
(1.02478 -0.0140846 0)
(1.02788 -0.0205741 0)
(1.03149 -0.0274101 0)
(1.03526 -0.0351924 0)
(1.03889 -0.0438059 0)
(1.04208 -0.0533456 0)
(1.04453 -0.0637878 0)
(1.04596 -0.0751157 0)
(1.04615 -0.0872745 0)
(1.04487 -0.100209 0)
(1.04192 -0.11385 0)
(1.03707 -0.128104 0)
(1.03009 -0.142825 0)
(1.02077 -0.157802 0)
(1.00887 -0.172771 0)
(0.994259 -0.187403 0)
(0.976923 -0.201199 0)
(0.957013 -0.213398 0)
(0.934758 -0.223343 0)
(0.910373 -0.231343 0)
(0.884102 -0.237955 0)
(0.856244 -0.241214 0)
(0.828598 -0.237774 0)
(0.806947 -0.229595 0)
(0.793216 -0.221026 0)
(0.780717 -0.211446 0)
(0.767579 -0.201218 0)
(1.02157 -0.00251471 0)
(1.02306 -0.00860524 0)
(1.02557 -0.0140485 0)
(1.02882 -0.0205418 0)
(1.03266 -0.0273935 0)
(1.0367 -0.0352277 0)
(1.04066 -0.0439305 0)
(1.04423 -0.0536095 0)
(1.04713 -0.0642573 0)
(1.04907 -0.0758676 0)
(1.04984 -0.088405 0)
(1.04923 -0.101845 0)
(1.04702 -0.116154 0)
(1.04301 -0.131289 0)
(1.03697 -0.147166 0)
(1.02862 -0.163666 0)
(1.01769 -0.180634 0)
(1.00391 -0.197803 0)
(0.987094 -0.214705 0)
(0.967106 -0.230607 0)
(0.944016 -0.244445 0)
(0.918542 -0.254636 0)
(0.892254 -0.259262 0)
(0.867065 -0.258593 0)
(0.844332 -0.257138 0)
(0.820322 -0.256416 0)
(0.791251 -0.251606 0)
(0.764349 -0.243537 0)
(0.744968 -0.234872 0)
(1.02211 -0.00250869 0)
(1.02366 -0.00857234 0)
(1.02628 -0.0140039 0)
(1.02967 -0.020493 0)
(1.03371 -0.02735 0)
(1.038 -0.0352204 0)
(1.04226 -0.0439889 0)
(1.0462 -0.053776 0)
(1.04951 -0.0645866 0)
(1.05195 -0.0764231 0)
(1.05328 -0.0892669 0)
(1.05331 -0.103117 0)
(1.05186 -0.117971 0)
(1.04872 -0.133831 0)
(1.04365 -0.150684 0)
(1.03638 -0.168505 0)
(1.02664 -0.187245 0)
(1.01409 -0.20673 0)
(0.998323 -0.226574 0)
(0.978955 -0.246112 0)
(0.955715 -0.264353 0)
(0.928488 -0.280624 0)
(0.897391 -0.295686 0)
(0.862636 -0.309398 0)
(0.824461 -0.316287 0)
(0.787274 -0.311994 0)
(0.759944 -0.302914 0)
(0.739902 -0.293107 0)
(0.718346 -0.280164 0)
(1.0226 -0.00250199 0)
(1.0242 -0.00853698 0)
(1.02691 -0.013954 0)
(1.03044 -0.020433 0)
(1.03467 -0.0272874 0)
(1.03918 -0.0351814 0)
(1.04372 -0.0439966 0)
(1.04799 -0.0538663 0)
(1.0517 -0.0648045 0)
(1.05459 -0.0768204 0)
(1.05645 -0.0899091 0)
(1.0571 -0.104087 0)
(1.05637 -0.119377 0)
(1.05408 -0.135825 0)
(1.05 -0.153481 0)
(1.0439 -0.172401 0)
(1.03553 -0.192641 0)
(1.0245 -0.214155 0)
(1.0102 -0.236676 0)
(0.992039 -0.2597 0)
(0.969527 -0.282431 0)
(0.942492 -0.303538 0)
(0.911783 -0.32055 0)
(0.878986 -0.33024 0)
(0.846105 -0.333925 0)
(0.813931 -0.339201 0)
(0.775653 -0.342851 0)
(0.731332 -0.336745 0)
(0.695436 -0.326916 0)
(1.02304 -0.00249488 0)
(1.02468 -0.00850045 0)
(1.02748 -0.013901 0)
(1.03112 -0.0203659 0)
(1.03552 -0.0272119 0)
(1.04024 -0.0351198 0)
(1.04504 -0.0439665 0)
(1.04962 -0.0538987 0)
(1.05369 -0.0649358 0)
(1.057 -0.0770928 0)
(1.05935 -0.0903745 0)
(1.06058 -0.104811 0)
(1.06054 -0.120444 0)
(1.05906 -0.137358 0)
(1.05597 -0.155652 0)
(1.05108 -0.175452 0)
(1.04416 -0.196917 0)
(1.03482 -0.220138 0)
(1.02231 -0.244987 0)
(1.00589 -0.271104 0)
(0.984969 -0.297912 0)
(0.958937 -0.324501 0)
(0.926965 -0.350511 0)
(0.888604 -0.377634 0)
(0.843167 -0.404136 0)
(0.789988 -0.417259 0)
(0.738763 -0.412521 0)
(0.701905 -0.404134 0)
(0.66918 -0.391917 0)
(1.02343 -0.00248758 0)
(1.02511 -0.00846376 0)
(1.02798 -0.013847 0)
(1.03173 -0.0202949 0)
(1.03629 -0.0271287 0)
(1.04119 -0.0350429 0)
(1.04623 -0.0439095 0)
(1.05109 -0.0538883 0)
(1.05548 -0.0650011 0)
(1.05918 -0.0772678 0)
(1.06199 -0.0906999 0)
(1.06375 -0.105337 0)
(1.06435 -0.121236 0)
(1.06366 -0.138507 0)
(1.06153 -0.157292 0)
(1.05784 -0.17778 0)
(1.05238 -0.200217 0)
(1.04478 -0.224811 0)
(1.03429 -0.251584 0)
(1.02001 -0.28033 0)
(1.00127 -0.310802 0)
(0.977433 -0.342644 0)
(0.947743 -0.3744 0)
(0.912401 -0.402116 0)
(0.872197 -0.420466 0)
(0.829102 -0.433738 0)
(0.781883 -0.453732 0)
(0.719358 -0.464113 0)
(0.651876 -0.455135 0)
(1.02378 -0.00248028 0)
(1.02549 -0.00842776 0)
(1.02843 -0.0137933 0)
(1.03228 -0.0202226 0)
(1.03698 -0.0270418 0)
(1.04204 -0.0349567 0)
(1.0473 -0.0438343 0)
(1.0524 -0.0538472 0)
(1.0571 -0.065017 0)
(1.06115 -0.077368 0)
(1.06437 -0.0909156 0)
(1.06663 -0.105706 0)
(1.06783 -0.121806 0)
(1.06787 -0.139343 0)
(1.06665 -0.158496 0)
(1.0641 -0.179505 0)
(1.06006 -0.202685 0)
(1.05421 -0.228331 0)
(1.04582 -0.256608 0)
(1.03397 -0.2875 0)
(1.01788 -0.320952 0)
(0.997158 -0.35703 0)
(0.970522 -0.39534 0)
(0.934954 -0.436061 0)
(0.889194 -0.483583 0)
(0.831104 -0.534398 0)
(0.754423 -0.55973 0)
(0.677322 -0.555674 0)
(0.62104 -0.54912 0)
(1.02408 -0.00247314 0)
(1.02583 -0.00839308 0)
(1.02883 -0.0137412 0)
(1.03276 -0.0201512 0)
(1.03759 -0.0269544 0)
(1.04279 -0.0348658 0)
(1.04825 -0.0437479 0)
(1.05358 -0.053785 0)
(1.05854 -0.0649968 0)
(1.06292 -0.0774118 0)
(1.06652 -0.0910472 0)
(1.06923 -0.105952 0)
(1.07097 -0.1222 0)
(1.07169 -0.139933 0)
(1.07131 -0.159353 0)
(1.06981 -0.180742 0)
(1.06714 -0.204468 0)
(1.06298 -0.230888 0)
(1.05666 -0.260273 0)
(1.04736 -0.292809 0)
(1.03428 -0.328616 0)
(1.01698 -0.368135 0)
(0.994843 -0.412201 0)
(0.965559 -0.459657 0)
(0.927053 -0.503864 0)
(0.87896 -0.53617 0)
(0.823483 -0.571643 0)
(0.74899 -0.626941 0)
(0.635843 -0.644106 0)
(1.02435 -0.00246625 0)
(1.02613 -0.00836019 0)
(1.02919 -0.0136914 0)
(1.03319 -0.020082 0)
(1.03813 -0.0268686 0)
(1.04347 -0.0347738 0)
(1.04909 -0.0436555 0)
(1.05463 -0.0537092 0)
(1.05984 -0.0649513 0)
(1.0645 -0.0774143 0)
(1.06844 -0.0911154 0)
(1.07156 -0.106105 0)
(1.0738 -0.122459 0)
(1.07512 -0.14033 0)
(1.07551 -0.159936 0)
(1.07499 -0.181588 0)
(1.0736 -0.205694 0)
(1.07104 -0.232659 0)
(1.06668 -0.26281 0)
(1.05986 -0.296495 0)
(1.04999 -0.334088 0)
(1.03648 -0.37607 0)
(1.0194 -0.423729 0)
(0.996752 -0.478307 0)
(0.960365 -0.540484 0)
(0.908784 -0.62183 0)
(0.842458 -0.725805 0)
(0.724236 -0.785721 0)
(0.570938 -0.780236 0)
(1.02459 -0.00245973 0)
(1.0264 -0.00832944 0)
(1.0295 -0.0136445 0)
(1.03358 -0.0200162 0)
(1.03861 -0.0267864 0)
(1.04406 -0.0346833 0)
(1.04984 -0.0435616 0)
(1.05556 -0.0536258 0)
(1.06099 -0.0648893 0)
(1.0659 -0.0773878 0)
(1.07015 -0.0911375 0)
(1.07363 -0.106188 0)
(1.07631 -0.122617 0)
(1.07818 -0.140581 0)
(1.07926 -0.160309 0)
(1.07964 -0.182132 0)
(1.0794 -0.206486 0)
(1.07833 -0.233813 0)
(1.0758 -0.264468 0)
(1.07127 -0.298866 0)
(1.06458 -0.337652 0)
(1.05517 -0.381418 0)
(1.04274 -0.431376 0)
(1.02757 -0.491315 0)
(1.00588 -0.56265 0)
(0.970833 -0.631436 0)
(0.917291 -0.683998 0)
(0.84954 -0.781206 0)
(0.702605 -0.931195 0)
(1.0248 -0.00245361 0)
(1.02664 -0.00830102 0)
(1.02977 -0.0136009 0)
(1.03391 -0.0199547 0)
(1.03903 -0.0267087 0)
(1.04459 -0.0345964 0)
(1.0505 -0.043469 0)
(1.05638 -0.0535394 0)
(1.06201 -0.0648174 0)
(1.06715 -0.0773417 0)
(1.07166 -0.0911265 0)
(1.07547 -0.106219 0)
(1.07854 -0.122699 0)
(1.0809 -0.140721 0)
(1.0826 -0.160523 0)
(1.08379 -0.182447 0)
(1.08458 -0.206945 0)
(1.08485 -0.234485 0)
(1.08401 -0.265444 0)
(1.08156 -0.300227 0)
(1.07773 -0.339635 0)
(1.07245 -0.384582 0)
(1.06492 -0.435862 0)
(1.05692 -0.497164 0)
(1.04802 -0.57348 0)
(1.02027 -0.661088 0)
(0.971822 -0.789637 0)
(0.918943 -1.02803 0)
(0.673139 -1.1486 0)
(0.998538 -0.00237448 0)
(0.998786 -0.00225092 0)
(0.998923 -0.00212769 0)
(0.998954 -0.00200463 0)
(0.998879 -0.00188118 0)
(0.998686 -0.00175613 0)
(0.998356 -0.00162801 0)
(0.997865 -0.0014952 0)
(0.997183 -0.00135616 0)
(0.996285 -0.0012097 0)
(0.995155 -0.00105532 0)
(0.99379 -0.000893564 0)
(0.992213 -0.000726257 0)
(0.990475 -0.000556621 0)
(0.988658 -0.000389088 0)
(0.986873 -0.000228825 0)
(0.985252 -8.09665e-05 0)
(0.983932 5.03169e-05 0)
(0.983036 0.000162737 0)
(0.997904 -0.000277648 0)
(0.997668 -0.000175697 0)
(0.997537 -6.56508e-05 0)
(0.997491 5.04501e-05 0)
(0.997522 0.000171459 0)
(0.997631 0.000295601 0)
(0.99783 0.000420587 0)
(0.998142 0.000543833 0)
(0.998601 0.000662653 0)
(0.999244 0.000774622 0)
(1.00011 0.000878154 0)
(1.00123 0.000973193 0)
(1.00261 0.0010619 0)
(1.00424 0.00114914 0)
(1.00607 0.00124257 0)
(1.00799 0.00135201 0)
(1.00986 0.00148816 0)
(1.01153 0.00166061 0)
(1.01282 0.00187554 0)
(0.993641 0.00120252 0)
(0.993675 0.00164631 0)
(0.993625 0.00209318 0)
(0.993506 0.00254526 0)
(0.993326 0.00300309 0)
(0.993084 0.00346762 0)
(0.992773 0.00393955 0)
(0.992377 0.00441912 0)
(0.991871 0.00490593 0)
(0.991225 0.00539872 0)
(0.990403 0.0058948 0)
(0.989367 0.00638954 0)
(0.98809 0.00687567 0)
(0.98656 0.00734301 0)
(0.9848 0.00777846 0)
(0.982872 0.00816691 0)
(0.98089 0.00849303 0)
(0.979014 0.00874393 0)
(0.977435 0.00891235 0)
(0.988006 -0.0010843 0)
(0.987734 -0.000678696 0)
(0.987521 -0.000276683 0)
(0.987356 0.000119009 0)
(0.987236 0.000508069 0)
(0.987172 0.000889709 0)
(0.987182 0.00126297 0)
(0.987299 0.00162694 0)
(0.987566 0.00198089 0)
(0.98804 0.00232469 0)
(0.988786 0.00265939 0)
(0.98987 0.00298812 0)
(0.991353 0.00331716 0)
(0.993269 0.00365691 0)
(0.99561 0.00402251 0)
(0.998303 0.00443363 0)
(1.0012 0.00491287 0)
(1.00408 0.00548268 0)
(1.00667 0.00616087 0)
(0.981355 -0.000973424 0)
(0.981428 -0.000205706 0)
(0.981445 0.000571292 0)
(0.981419 0.0013572 0)
(0.981357 0.00215097 0)
(0.981261 0.00295288 0)
(0.981125 0.00376394 0)
(0.980935 0.00458583 0)
(0.980663 0.00542106 0)
(0.980269 0.00627282 0)
(0.979692 0.00714451 0)
(0.978858 0.00803881 0)
(0.97768 0.00895636 0)
(0.976075 0.00989397 0)
(0.973983 0.0108428 0)
(0.971394 0.0117873 0)
(0.968383 0.012705 0)
(0.965126 0.0135688 0)
(0.961909 0.0143514 0)
(0.972847 -0.00480998 0)
(0.97242 -0.00408471 0)
(0.972057 -0.00334571 0)
(0.97174 -0.00259681 0)
(0.971459 -0.0018376 0)
(0.971213 -0.00106826 0)
(0.971007 -0.000289509 0)
(0.970856 0.000497524 0)
(0.970786 0.00129098 0)
(0.97084 0.00208802 0)
(0.971077 0.00288486 0)
(0.971576 0.00367708 0)
(0.972433 0.00446058 0)
(0.97375 0.00523318 0)
(0.975614 0.00599683 0)
(0.978064 0.00675994 0)
(0.981063 0.00753907 0)
(0.984454 0.00835878 0)
(0.987955 0.0092487 0)
(0.963911 -0.00869944 0)
(0.963716 -0.00751046 0)
(0.963488 -0.00630372 0)
(0.963238 -0.00508036 0)
(0.962974 -0.00384356 0)
(0.9627 -0.00259516 0)
(0.962416 -0.00133664 0)
(0.962117 -6.9315e-05 0)
(0.961792 0.00120619 0)
(0.961417 0.00249033 0)
(0.960953 0.00378494 0)
(0.960336 0.00509338 0)
(0.959478 0.00642015 0)
(0.958264 0.00776977 0)
(0.956571 0.00914465 0)
(0.954287 0.0105424 0)
(0.951363 0.0119527 0)
(0.947859 0.013356 0)
(0.943989 0.0147245 0)
(0.952873 -0.0143498 0)
(0.952145 -0.013179 0)
(0.951494 -0.0119828 0)
(0.950904 -0.0107662 0)
(0.950365 -0.00952913 0)
(0.949874 -0.00827167 0)
(0.949432 -0.00699454 0)
(0.949046 -0.00569849 0)
(0.948727 -0.00438446 0)
(0.948498 -0.00305393 0)
(0.948392 -0.00170921 0)
(0.948459 -0.000353833 0)
(0.948776 0.00100733 0)
(0.94944 0.00236839 0)
(0.950569 0.00372367 0)
(0.952278 0.00507009 0)
(0.954637 0.00641016 0)
(0.957625 0.00775486 0)
(0.961071 0.00912424 0)
(0.94121 -0.0218582 0)
(0.940587 -0.0201212 0)
(0.939954 -0.0183482 0)
(0.939328 -0.0165422 0)
(0.938717 -0.0147078 0)
(0.938127 -0.0128483 0)
(0.937561 -0.0109671 0)
(0.937019 -0.009068 0)
(0.936495 -0.00715477 0)
(0.935978 -0.0052311 0)
(0.935444 -0.0033002 0)
(0.934853 -0.00136442 0)
(0.934143 0.000575159 0)
(0.933218 0.00251881 0)
(0.931955 0.00446759 0)
(0.930213 0.00642178 0)
(0.927866 0.00837814 0)
(0.924861 0.0103272 0)
(0.921291 0.012252 0)
(0.928225 -0.0300227 0)
(0.927002 -0.0283172 0)
(0.92588 -0.0265708 0)
(0.924846 -0.0247911 0)
(0.923894 -0.0229798 0)
(0.923023 -0.0211387 0)
(0.922237 -0.0192707 0)
(0.921541 -0.0173781 0)
(0.920944 -0.0154634 0)
(0.92046 -0.0135286 0)
(0.920109 -0.0115757 0)
(0.919922 -0.00960608 0)
(0.919948 -0.00762138 0)
(0.920256 -0.00562292 0)
(0.920943 -0.00361152 0)
(0.922125 -0.00158616 0)
(0.92391 0.000458366 0)
(0.926345 0.00253433 0)
(0.929349 0.00466237 0)
(0.914326 -0.0413219 0)
(0.913097 -0.0389349 0)
(0.911894 -0.0364873 0)
(0.910737 -0.033984 0)
(0.909639 -0.0314292 0)
(0.908611 -0.0288253 0)
(0.907656 -0.0261746 0)
(0.906778 -0.0234796 0)
(0.905971 -0.0207426 0)
(0.905226 -0.0179662 0)
(0.904523 -0.0151531 0)
(0.903828 -0.012306 0)
(0.903085 -0.00942767 0)
(0.902214 -0.00652126 0)
(0.901096 -0.00359069 0)
(0.899582 -0.000642304 0)
(0.897509 0.0023126 0)
(0.894756 0.00525454 0)
(0.891329 0.00815428 0)
(0.899652 -0.0519361 0)
(0.897718 -0.0495196 0)
(0.895919 -0.0470239 0)
(0.894241 -0.0444606 0)
(0.892681 -0.0418349 0)
(0.891235 -0.0391524 0)
(0.889907 -0.0364196 0)
(0.888699 -0.033643 0)
(0.887617 -0.0308289 0)
(0.886668 -0.0279834 0)
(0.885865 -0.0251119 0)
(0.885228 -0.0222194 0)
(0.884791 -0.0193104 0)
(0.884612 -0.0163885 0)
(0.884779 -0.0134561 0)
(0.885412 -0.0105124 0)
(0.886652 -0.00755024 0)
(0.888609 -0.00455145 0)
(0.891276 -0.001483 0)
(0.883573 -0.0666531 0)
(0.881438 -0.0633952 0)
(0.879369 -0.0600399 0)
(0.877396 -0.0565955 0)
(0.875534 -0.0530663 0)
(0.873798 -0.0494542 0)
(0.872194 -0.0457602 0)
(0.870726 -0.0419857 0)
(0.869394 -0.0381323 0)
(0.86819 -0.034202 0)
(0.8671 -0.0301976 0)
(0.866096 -0.0261226 0)
(0.865136 -0.0219818 0)
(0.86415 -0.0177811 0)
(0.86303 -0.0135287 0)
(0.86162 -0.00923665 0)
(0.859721 -0.00492455 0)
(0.857131 -0.000625406 0)
(0.853745 0.00360975 0)
(0.866879 -0.0799736 0)
(0.863866 -0.0765046 0)
(0.861052 -0.0728724 0)
(0.858421 -0.0691006 0)
(0.855966 -0.0652036 0)
(0.853689 -0.0611982 0)
(0.85159 -0.0571021 0)
(0.849673 -0.0529342 0)
(0.847941 -0.0487135 0)
(0.8464 -0.0444591 0)
(0.845058 -0.0401893 0)
(0.843929 -0.0359215 0)
(0.843038 -0.0316715 0)
(0.842431 -0.0274529 0)
(0.842184 -0.0232756 0)
(0.84242 -0.019144 0)
(0.843309 -0.0150512 0)
(0.845034 -0.0109716 0)
(0.847694 -0.00685146 0)
(0.848091 -0.0980638 0)
(0.844553 -0.0934786 0)
(0.841161 -0.0887242 0)
(0.837955 -0.0838157 0)
(0.834964 -0.078765 0)
(0.832207 -0.0735803 0)
(0.829699 -0.0682699 0)
(0.82745 -0.0628426 0)
(0.82546 -0.0573073 0)
(0.823728 -0.0516727 0)
(0.82224 -0.0459471 0)
(0.820974 -0.0401384 0)
(0.819891 -0.0342547 0)
(0.818925 -0.0283045 0)
(0.817971 -0.0222992 0)
(0.816864 -0.016255 0)
(0.815362 -0.0102004 0)
(0.813158 -0.00418663 0)
(0.809971 0.0017005 0)
(0.82856 -0.115246 0)
(0.823773 -0.110154 0)
(0.819321 -0.104715 0)
(0.815192 -0.0989874 0)
(0.811393 -0.0930054 0)
(0.807932 -0.0868095 0)
(0.804817 -0.0804424 0)
(0.802055 -0.0739487 0)
(0.799651 -0.0673749 0)
(0.797605 -0.0607688 0)
(0.795919 -0.0541801 0)
(0.794595 -0.0476592 0)
(0.793642 -0.0412563 0)
(0.793088 -0.0350205 0)
(0.79299 -0.0289954 0)
(0.793463 -0.023217 0)
(0.794704 -0.0177014 0)
(0.796982 -0.0124295 0)
(0.800566 -0.00733096 0)
(0.806236 -0.138009 0)
(0.800355 -0.131316 0)
(0.794772 -0.124273 0)
(0.789578 -0.1169 0)
(0.784821 -0.109228 0)
(0.780547 -0.101293 0)
(0.776786 -0.0931308 0)
(0.773562 -0.0847874 0)
(0.770888 -0.0763082 0)
(0.768766 -0.0677397 0)
(0.76719 -0.0591249 0)
(0.766137 -0.0505025 0)
(0.765565 -0.0419049 0)
(0.765407 -0.0333565 0)
(0.765547 -0.0248785 0)
(0.765797 -0.0164859 0)
(0.765843 -0.00820807 0)
(0.765244 -0.000110189 0)
(0.763417 0.00769623 0)
(0.782975 -0.16132 0)
(0.775001 -0.153733 0)
(0.767647 -0.145403 0)
(0.760889 -0.136444 0)
(0.754798 -0.126949 0)
(0.74941 -0.117001 0)
(0.744772 -0.1067 0)
(0.740911 -0.0961453 0)
(0.73785 -0.0854426 0)
(0.735591 -0.0747019 0)
(0.734129 -0.064039 0)
(0.733445 -0.0535743 0)
(0.733516 -0.0434329 0)
(0.734322 -0.0337458 0)
(0.735869 -0.0246389 0)
(0.738214 -0.0162447 0)
(0.741562 -0.00866089 0)
(0.746215 -0.00192185 0)
(0.752688 0.00399104 0)
(0.756393 -0.19169 0)
(0.746324 -0.181855 0)
(0.736766 -0.171172 0)
(0.728014 -0.159732 0)
(0.720148 -0.147567 0)
(0.713294 -0.134792 0)
(0.707524 -0.121517 0)
(0.70291 -0.107876 0)
(0.699485 -0.0940106 0)
(0.697272 -0.0800689 0)
(0.696268 -0.0661946 0)
(0.696447 -0.0525241 0)
(0.697753 -0.039178 0)
(0.700096 -0.026248 0)
(0.703323 -0.0138105 0)
(0.707218 -0.00187996 0)
(0.711313 0.00952024 0)
(0.71504 0.0203218 0)
(0.717393 0.0304726 0)
(0.729296 -0.224721 0)
(0.715391 -0.213469 0)
(0.70269 -0.200737 0)
(0.691066 -0.186579 0)
(0.680761 -0.17127 0)
(0.671891 -0.154977 0)
(0.664598 -0.137914 0)
(0.658952 -0.120301 0)
(0.65503 -0.102367 0)
(0.652853 -0.0843456 0)
(0.652416 -0.0664823 0)
(0.653682 -0.0490264 0)
(0.656583 -0.0322358 0)
(0.661023 -0.0163943 0)
(0.666914 -0.00176748 0)
(0.674131 0.0112874 0)
(0.682905 0.0224765 0)
(0.693389 0.0315985 0)
(0.70631 0.0383305 0)
(0.69835 -0.266848 0)
(0.680773 -0.252829 0)
(0.663947 -0.236645 0)
(0.648678 -0.218791 0)
(0.635172 -0.19929 0)
(0.623701 -0.17842 0)
(0.614398 -0.156472 0)
(0.607444 -0.133747 0)
(0.602884 -0.110561 0)
(0.600782 -0.0872392 0)
(0.601135 -0.0641017 0)
(0.603916 -0.0414697 0)
(0.609051 -0.0196611 0)
(0.616426 0.00105906 0)
(0.625806 0.020389 0)
(0.637055 0.0382727 0)
(0.649264 0.0546014 0)
(0.661902 0.0692722 0)
(0.673477 0.0826492 0)
(0.668565 -0.314489 0)
(0.643984 -0.298079 0)
(0.621588 -0.278821 0)
(0.601351 -0.256599 0)
(0.583672 -0.231973 0)
(0.568794 -0.205458 0)
(0.557033 -0.177448 0)
(0.5484 -0.148406 0)
(0.543053 -0.118761 0)
(0.540996 -0.0889179 0)
(0.542247 -0.059293 0)
(0.546782 -0.0303069 0)
(0.554548 -0.00239058 0)
(0.565419 0.0239153 0)
(0.579348 0.0481941 0)
(0.595718 0.0695634 0)
(0.615237 0.0874317 0)