/*--------------------------------*- C++ -*----------------------------------*\
  =========                 |
  \\      /  F ield         | OpenFOAM: The Open Source CFD Toolbox
   \\    /   O peration     | Website:  https://openfoam.org
    \\  /    A nd           | Version:  10
     \\/     M anipulation  |
\*---------------------------------------------------------------------------*/
FoamFile
{
    format      ascii;
    class       volVectorField;
    location    "0";
    object      U;
}
// * * * * * * * * * * * * * * * * * * * * * * * * * * * * * * * * * * * * * //

dimensions      [0 1 -1 0 0 0 0];

internalField   nonuniform List<vector> 
18483
(
(1.00001 -0.000188749 0)
(1 -0.000680833 0)
(1 -0.00109471 0)
(0.999999 -0.00154527 0)
(0.999995 -0.00198378 0)
(0.99999 -0.00241532 0)
(0.999986 -0.00282048 0)
(0.999981 -0.00318508 0)
(0.999976 -0.00349703 0)
(0.999971 -0.00375014 0)
(0.999965 -0.00394672 0)
(0.999959 -0.00409696 0)
(0.999953 -0.00421405 0)
(0.999951 -0.00432728 0)
(0.999951 -0.00447401 0)
(0.999946 -0.00468723 0)
(0.999896 -0.00494779 0)
(0.999625 -0.00517059 0)
(0.998601 -0.00527805 0)
(0.996 -0.005228 0)
(0.991783 -0.00508294 0)
(0.987844 -0.00498928 0)
(0.986542 -0.00496484 0)
(0.988041 -0.00489824 0)
(0.990714 -0.00474758 0)
(0.9932 -0.00455234 0)
(0.995032 -0.0043534 0)
(0.996245 -0.00417336 0)
(0.997007 -0.00402025 0)
(1.00058 -0.00051416 0)
(1.00061 -0.00185005 0)
(1.00069 -0.00299552 0)
(1.00077 -0.00427273 0)
(1.00085 -0.00554333 0)
(1.00091 -0.00682495 0)
(1.00094 -0.00805811 0)
(1.00093 -0.00919775 0)
(1.00087 -0.0101978 0)
(1.00078 -0.011024 0)
(1.00066 -0.0116511 0)
(1.00053 -0.0120817 0)
(1.00041 -0.0123317 0)
(1.00034 -0.0123698 0)
(1.00031 -0.0121429 0)
(1.0003 -0.0115975 0)
(1.00025 -0.0107735 0)
(1.00021 -0.00986222 0)
(1.00073 -0.00908059 0)
(1.00293 -0.00861938 0)
(1.00732 -0.00850325 0)
(1.01182 -0.00848123 0)
(1.01318 -0.00837534 0)
(1.0109 -0.00829579 0)
(1.00724 -0.0083177 0)
(1.00407 -0.00838485 0)
(1.0019 -0.00844609 0)
(1.00057 -0.00848096 0)
(0.999793 -0.0084875 0)
(1.00158 -0.000774869 0)
(1.0017 -0.00277693 0)
(1.00191 -0.00451103 0)
(1.00215 -0.00646855 0)
(1.00241 -0.00843696 0)
(1.00261 -0.010455 0)
(1.00273 -0.012427 0)
(1.00274 -0.0142814 0)
(1.0026 -0.0159357 0)
(1.00234 -0.0173281 0)
(1.00194 -0.0184181 0)
(1.00144 -0.0191891 0)
(1.00089 -0.0196482 0)
(1.00034 -0.0198327 0)
(0.999766 -0.019857 0)
(0.99915 -0.0199284 0)
(0.998493 -0.0201756 0)
(0.997764 -0.0204983 0)
(0.996608 -0.0206794 0)
(0.994145 -0.0205264 0)
(0.989821 -0.0199412 0)
(0.985211 -0.0190931 0)
(0.983384 -0.018289 0)
(0.985091 -0.0175351 0)
(0.988189 -0.0167315 0)
(0.990823 -0.015937 0)
(0.992562 -0.0152161 0)
(0.993602 -0.0145906 0)
(0.994204 -0.0140621 0)
(1.00275 -0.000977204 0)
(1.00297 -0.00348947 0)
(1.00334 -0.00567848 0)
(1.00379 -0.00817177 0)
(1.00426 -0.0107017 0)
(1.00466 -0.0133319 0)
(1.00491 -0.0159424 0)
(1.00496 -0.0184462 0)
(1.00476 -0.0207343 0)
(1.0043 -0.0227217 0)
(1.0036 -0.0243398 0)
(1.00271 -0.0255318 0)
(1.00169 -0.0262843 0)
(1.00061 -0.026648 0)
(0.999502 -0.0266737 0)
(0.99842 -0.0262461 0)
(0.997444 -0.0251928 0)
(0.996694 -0.0236021 0)
(0.996586 -0.0218319 0)
(0.998097 -0.0202818 0)
(1.00192 -0.0192211 0)
(1.00633 -0.0186468 0)
(1.0077 -0.0182409 0)
(1.00485 -0.017867 0)
(1.00033 -0.0176191 0)
(0.996511 -0.0174367 0)
(0.993955 -0.0172347 0)
(0.992365 -0.0169954 0)
(0.991382 -0.0167242 0)
(1.00392 -0.00113261 0)
(1.00425 -0.00403228 0)
(1.0048 -0.00657107 0)
(1.00548 -0.00948849 0)
(1.0062 -0.0124796 0)
(1.00684 -0.015635 0)
(1.00729 -0.0188243 0)
(1.00745 -0.0219528 0)
(1.00726 -0.0248852 0)
(1.00668 -0.0275001 0)
(1.00575 -0.0296904 0)
(1.0045 -0.0313819 0)
(1.00299 -0.0325729 0)
(1.00129 -0.0333066 0)
(0.999478 -0.0336495 0)
(0.997608 -0.0337179 0)
(0.99568 -0.0337515 0)
(0.993699 -0.0339384 0)
(0.991525 -0.0341044 0)
(0.988512 -0.033869 0)
(0.983922 -0.0329591 0)
(0.978765 -0.0314022 0)
(0.976196 -0.029664 0)
(0.977614 -0.028095 0)
(0.980665 -0.0265951 0)
(0.982968 -0.0251738 0)
(0.984143 -0.0239221 0)
(0.984588 -0.022851 0)
(0.984655 -0.0219486 0)
(1.00505 -0.00125483 0)
(1.0055 -0.00445613 0)
(1.00625 -0.00727377 0)
(1.00718 -0.0105399 0)
(1.0082 -0.013927 0)
(1.00914 -0.0175585 0)
(1.00986 -0.0213026 0)
(1.01022 -0.0250626 0)
(1.01012 -0.028682 0)
(1.0095 -0.0320133 0)
(1.00835 -0.0349306 0)
(1.00671 -0.0373534 0)
(1.00466 -0.0392481 0)
(1.00234 -0.0405754 0)
(0.999894 -0.0413324 0)
(0.997424 -0.041517 0)
(0.995012 -0.0410349 0)
(0.992742 -0.039781 0)
(0.990864 -0.0378698 0)
(0.990186 -0.035735 0)
(0.991848 -0.0338991 0)
(0.9952 -0.0326796 0)
(0.996657 -0.0318299 0)
(0.993827 -0.0309797 0)
(0.988844 -0.0302683 0)
(0.984646 -0.0297377 0)
(0.981851 -0.0292382 0)
(0.980026 -0.0287316 0)
(0.978779 -0.0282193 0)
(1.00616 -0.0013535 0)
(1.00673 -0.00479608 0)
(1.00768 -0.00784296 0)
(1.0089 -0.0114021 0)
(1.01025 -0.0151351 0)
(1.01155 -0.0192042 0)
(1.01262 -0.0234846 0)
(1.01327 -0.0278886 0)
(1.01337 -0.0322545 0)
(1.0128 -0.0364213 0)
(1.01153 -0.0402309 0)
(1.00961 -0.0435391 0)
(1.00718 -0.0462245 0)
(1.0044 -0.0481919 0)
(1.00136 -0.0494515 0)
(0.998121 -0.0501059 0)
(0.99468 -0.0504411 0)
(0.990981 -0.0508064 0)
(0.986971 -0.0512303 0)
(0.982347 -0.0513873 0)
(0.976475 -0.050871 0)
(0.969779 -0.0495141 0)
(0.965283 -0.0476674 0)
(0.965515 -0.0458616 0)
(0.968354 -0.0440465 0)
(0.970461 -0.0421478 0)
(0.97123 -0.0403938 0)
(0.971266 -0.0388643 0)
(0.970983 -0.0375596 0)
(1.00723 -0.00143284 0)
(1.00794 -0.00506663 0)
(1.0091 -0.0082992 0)
(1.01061 -0.012099 0)
(1.01232 -0.0161249 0)
(1.01402 -0.0205822 0)
(1.01551 -0.0253612 0)
(1.01655 -0.0303957 0)
(1.01696 -0.0355277 0)
(1.01659 -0.040581 0)
(1.01538 -0.0453496 0)
(1.01336 -0.0496273 0)
(1.01062 -0.053258 0)
(1.00729 -0.0561533 0)
(1.00347 -0.0583174 0)
(0.999316 -0.0597585 0)
(0.994972 -0.060414 0)
(0.990587 -0.0600423 0)
(0.986401 -0.05855 0)
(0.98325 -0.0563809 0)
(0.982675 -0.0541764 0)
(0.984956 -0.0524211 0)
(0.986518 -0.0511284 0)
(0.983284 -0.0498782 0)
(0.976789 -0.0487675 0)
(0.971245 -0.0480052 0)
(0.967674 -0.0473235 0)
(0.965289 -0.046611 0)
(0.963577 -0.0458821 0)
(1.00827 -0.00149432 0)
(1.0091 -0.005271 0)
(1.01048 -0.00864459 0)
(1.01228 -0.0126303 0)
(1.01437 -0.0168873 0)
(1.0165 -0.0216658 0)
(1.01845 -0.0268785 0)
(1.01997 -0.0324878 0)
(1.02081 -0.0383473 0)
(1.02079 -0.0442765 0)
(1.01977 -0.0500506 0)
(1.01772 -0.0554392 0)
(1.01468 -0.0602484 0)
(1.01081 -0.0643086 0)
(1.0063 -0.0674921 0)
(1.00139 -0.0696926 0)
(0.996192 -0.0709711 0)
(0.990696 -0.071774 0)
(0.984821 -0.0726492 0)
(0.978398 -0.0735937 0)
(0.970617 -0.0740281 0)
(0.961181 -0.0734321 0)
(0.953234 -0.0718618 0)
(0.951242 -0.069962 0)
(0.95382 -0.0678734 0)
(0.955824 -0.0654094 0)
(0.955969 -0.062987 0)
(0.955353 -0.0608462 0)
(0.954507 -0.0589893 0)
(1.00924 -0.00153919 0)
(1.01018 -0.00541097 0)
(1.01178 -0.00887969 0)
(1.01387 -0.0129957 0)
(1.01633 -0.0174163 0)
(1.01891 -0.0224372 0)
(1.02137 -0.0279969 0)
(1.02343 -0.0340929 0)
(1.02481 -0.0406048 0)
(1.02525 -0.047373 0)
(1.02456 -0.0541788 0)
(1.02264 -0.0607665 0)
(1.01952 -0.0668639 0)
(1.01532 -0.07219 0)
(1.01025 -0.0765383 0)
(1.00446 -0.0798012 0)
(0.998119 -0.0819601 0)
(0.991452 -0.0829364 0)
(0.984919 -0.0824548 0)
(0.97932 -0.0805756 0)
(0.976229 -0.0780477 0)
(0.976928 -0.0757738 0)
(0.978364 -0.0741699 0)
(0.974292 -0.0727275 0)
(0.964907 -0.071296 0)
(0.956587 -0.0703414 0)
(0.951497 -0.0695204 0)
(0.94806 -0.0685521 0)
(0.945491 -0.0675171 0)
(1.01013 -0.0015697 0)
(1.01116 -0.00549204 0)
(1.01297 -0.00901177 0)
(1.01535 -0.0132061 0)
(1.01817 -0.0177239 0)
(1.0212 -0.0229049 0)
(1.02419 -0.0287159 0)
(1.02684 -0.0351945 0)
(1.02884 -0.0422609 0)
(1.02988 -0.0497912 0)
(1.02971 -0.0575805 0)
(1.02818 -0.0653534 0)
(1.02522 -0.0727924 0)
(1.02089 -0.0795706 0)
(1.01529 -0.0854299 0)
(1.00863 -0.0901817 0)
(1.00122 -0.0937033 0)
(0.993392 -0.0961031 0)
(0.985347 -0.0980087 0)
(0.976897 -0.100075 0)
(0.967037 -0.10192 0)
(0.954539 -0.10242 0)
(0.942001 -0.10105 0)
(0.936214 -0.0987532 0)
(0.937998 -0.0962278 0)
(0.939872 -0.093078 0)
(0.938837 -0.0897639 0)
(0.936962 -0.0868512 0)
(0.935052 -0.0843025 0)
(1.01092 -0.00158902 0)
(1.01205 -0.0055245 0)
(1.01404 -0.00905644 0)
(1.01669 -0.0132845 0)
(1.01985 -0.01784 0)
(1.02333 -0.0231045 0)
(1.02685 -0.0290732 0)
(1.03012 -0.0358265 0)
(1.03281 -0.043331 0)
(1.03456 -0.0515071 0)
(1.03509 -0.0601804 0)
(1.03414 -0.0690926 0)
(1.03155 -0.077928 0)
(1.02728 -0.0863235 0)
(1.02138 -0.0939095 0)
(1.01411 -0.100344 0)
(1.00581 -0.105382 0)
(0.996872 -0.108852 0)
(0.987783 -0.110444 0)
(0.979282 -0.109782 0)
(0.972777 -0.107237 0)
(0.970421 -0.104284 0)
(0.970892 -0.102402 0)
(0.966291 -0.101217 0)
(0.953536 -0.0996728 0)
(0.940947 -0.0984594 0)
(0.933495 -0.0975454 0)
(0.928488 -0.0962586 0)
(0.924551 -0.0947884 0)
(1.01165 -0.00160041 0)
(1.01285 -0.00552152 0)
(1.01501 -0.00903499 0)
(1.0179 -0.0132606 0)
(1.02139 -0.017805 0)
(1.02528 -0.0230876 0)
(1.02932 -0.0291299 0)
(1.03321 -0.0360535 0)
(1.03662 -0.043874 0)
(1.03918 -0.0525654 0)
(1.04052 -0.0620074 0)
(1.04032 -0.0719881 0)
(1.03833 -0.0822077 0)
(1.03441 -0.0922692 0)
(1.02855 -0.101725 0)
(1.02088 -0.110158 0)
(1.01171 -0.117277 0)
(1.00149 -0.122946 0)
(0.990617 -0.127372 0)
(0.979177 -0.131399 0)
(0.966513 -0.135433 0)
(0.951054 -0.138159 0)
(0.93366 -0.137773 0)
(0.921991 -0.134874 0)
(0.921113 -0.131562 0)
(0.922735 -0.127728 0)
(0.920095 -0.123252 0)
(0.916214 -0.119308 0)
(0.912723 -0.115907 0)
(1.01233 -0.00160627 0)
(1.01359 -0.00549617 0)
(1.01589 -0.00897019 0)
(1.01898 -0.0131651 0)
(1.02277 -0.0176609 0)
(1.02704 -0.0229091 0)
(1.03158 -0.0289537 0)
(1.03608 -0.0359535 0)
(1.04023 -0.0439742 0)
(1.04362 -0.0530505 0)
(1.04587 -0.0631285 0)
(1.0466 -0.0740549 0)
(1.04547 -0.085564 0)
(1.04224 -0.0972715 0)
(1.03675 -0.108717 0)
(1.02904 -0.119412 0)
(1.01938 -0.128904 0)
(1.00833 -0.136747 0)
(0.996442 -0.142337 0)
(0.98441 -0.144832 0)
(0.973489 -0.143869 0)
(0.966134 -0.140754 0)
(0.963537 -0.138292 0)
(0.958696 -0.137774 0)
(0.943507 -0.136943 0)
(0.92517 -0.135404 0)
(0.913821 -0.13437 0)
(0.906649 -0.132757 0)
(0.900672 -0.130586 0)
(1.01297 -0.00160811 0)
(1.01429 -0.00545913 0)
(1.01668 -0.00888232 0)
(1.01995 -0.0130249 0)
(1.024 -0.0174449 0)
(1.02862 -0.022619 0)
(1.03362 -0.0286078 0)
(1.03871 -0.035604 0)
(1.04358 -0.0437211 0)
(1.04784 -0.0530545 0)
(1.05107 -0.0636185 0)
(1.05286 -0.0753298 0)
(1.05281 -0.0879882 0)
(1.05055 -0.101265 0)
(1.04579 -0.114709 0)
(1.03844 -0.127758 0)
(1.02869 -0.139826 0)
(1.01691 -0.150389 0)
(1.00345 -0.159122 0)
(0.988503 -0.166538 0)
(0.972058 -0.173809 0)
(0.953265 -0.180502 0)
(0.931232 -0.183668 0)
(0.911495 -0.181423 0)
(0.90384 -0.176874 0)
(0.904023 -0.172345 0)
(0.89979 -0.166636 0)
(0.892802 -0.161112 0)
(0.886968 -0.156562 0)
(1.01355 -0.00160711 0)
(1.01494 -0.0054177 0)
(1.0174 -0.00878637 0)
(1.02081 -0.0128618 0)
(1.02509 -0.017187 0)
(1.03003 -0.0222588 0)
(1.03544 -0.0281472 0)
(1.04109 -0.0350756 0)
(1.04665 -0.0431995 0)
(1.05176 -0.05267 0)
(1.05601 -0.0635692 0)
(1.05895 -0.0758955 0)
(1.06012 -0.0895352 0)
(1.05905 -0.104234 0)
(1.05536 -0.119585 0)
(1.0488 -0.135019 0)
(1.03934 -0.149904 0)
(1.02724 -0.163608 0)
(1.01294 -0.175342 0)
(0.997187 -0.183909 0)
(0.981403 -0.18783 0)
(0.967645 -0.186905 0)
(0.958705 -0.184099 0)
(0.952083 -0.183933 0)
(0.936171 -0.18522 0)
(0.911307 -0.184088 0)
(0.892803 -0.182605 0)
(0.882132 -0.180804 0)
(0.873012 -0.177549 0)
(1.01408 -0.00160442 0)
(1.01552 -0.00537604 0)
(1.01806 -0.00869148 0)
(1.02158 -0.0126915 0)
(1.02606 -0.01691 0)
(1.03127 -0.0218609 0)
(1.03707 -0.0276173 0)
(1.04321 -0.0344284 0)
(1.04942 -0.0424849 0)
(1.05535 -0.0519869 0)
(1.0606 -0.0630826 0)
(1.06473 -0.0758546 0)
(1.06722 -0.0902817 0)
(1.06757 -0.1062 0)
(1.06527 -0.123286 0)
(1.0599 -0.141026 0)
(1.05126 -0.158739 0)
(1.03948 -0.175652 0)
(1.02476 -0.190904 0)
(1.00728 -0.203967 0)
(0.987111 -0.215921 0)
(0.964142 -0.22817 0)
(0.937536 -0.23822 0)
(0.908962 -0.240537 0)
(0.889182 -0.235659 0)
(0.88358 -0.229977 0)
(0.877895 -0.223662 0)
(0.866467 -0.21598 0)
(0.856576 -0.209675 0)
(1.01456 -0.00160106 0)
(1.01605 -0.00533619 0)
(1.01865 -0.00860204 0)
(1.02227 -0.0125242 0)
(1.02692 -0.0166301 0)
(1.03237 -0.0214492 0)
(1.0385 -0.0270525 0)
(1.0451 -0.0337105 0)
(1.05191 -0.041641 0)
(1.05861 -0.0510864 0)
(1.06484 -0.0622553 0)
(1.07015 -0.0753086 0)
(1.07404 -0.0903177 0)
(1.07595 -0.107222 0)
(1.07528 -0.12581 0)
(1.07149 -0.145658 0)
(1.06417 -0.166109 0)
(1.05318 -0.186393 0)
(1.03853 -0.205685 0)
(1.02046 -0.222785 0)
(1.0001 -0.235691 0)
(0.979799 -0.242009 0)
(0.962327 -0.241923 0)
(0.949576 -0.241401 0)
(0.933018 -0.245532 0)
(0.902913 -0.247867 0)
(0.872578 -0.245949 0)
(0.854619 -0.243935 0)
(0.840714 -0.239609 0)
(1.01498 -0.00159778 0)
(1.01651 -0.00529915 0)
(1.01917 -0.0085196 0)
(1.02289 -0.0123656 0)
(1.02768 -0.0163577 0)
(1.03335 -0.0210402 0)
(1.03977 -0.0264779 0)
(1.04678 -0.0329582 0)
(1.05414 -0.0407194 0)
(1.06156 -0.0500378 0)
(1.06871 -0.061174 0)
(1.07518 -0.0743586 0)
(1.08047 -0.0897527 0)
(1.084 -0.107404 0)
(1.08512 -0.127222 0)
(1.08318 -0.148913 0)
(1.0776 -0.171918 0)
(1.06799 -0.195491 0)
(1.05425 -0.218749 0)
(1.03632 -0.240458 0)
(1.01412 -0.259921 0)
(0.987429 -0.278885 0)
(0.956031 -0.29834 0)
(0.919706 -0.312166 0)
(0.884269 -0.312519 0)
(0.864034 -0.305295 0)
(0.854517 -0.2989 0)
(0.838218 -0.289872 0)
(0.820761 -0.280595 0)
(1.01536 -0.00159502 0)
(1.01691 -0.00526554 0)
(1.01964 -0.00844454 0)
(1.02344 -0.0122181 0)
(1.02836 -0.0160992 0)
(1.03421 -0.0206447 0)
(1.0409 -0.0259108 0)
(1.04827 -0.0321987 0)
(1.05612 -0.0397607 0)
(1.0642 -0.0488997 0)
(1.07221 -0.0599179 0)
(1.07977 -0.0731068 0)
(1.08641 -0.0887099 0)
(1.09157 -0.10688 0)
(1.09456 -0.127645 0)
(1.09468 -0.150862 0)
(1.09121 -0.176114 0)
(1.08357 -0.202732 0)
(1.07141 -0.229956 0)
(1.05433 -0.256749 0)
(1.03225 -0.281335 0)
(1.00669 -0.300596 0)
(0.980661 -0.310646 0)
(0.957292 -0.312876 0)
(0.936271 -0.318488 0)
(0.904031 -0.3286 0)
(0.859541 -0.330277 0)
(0.82575 -0.327425 0)
(0.803809 -0.32307 0)
(1.01569 -0.00159297 0)
(1.01727 -0.00523573 0)
(1.02005 -0.00837698 0)
(1.02392 -0.0120825 0)
(1.02896 -0.0158578 0)
(1.03496 -0.0202695 0)
(1.04189 -0.0253635 0)
(1.04958 -0.031452 0)
(1.05787 -0.0387964 0)
(1.06654 -0.0477193 0)
(1.07533 -0.0585554 0)
(1.08391 -0.0716461 0)
(1.09185 -0.0873063 0)
(1.0986 -0.105783 0)
(1.10348 -0.127219 0)
(1.10578 -0.151616 0)
(1.1047 -0.178742 0)
(1.09947 -0.208068 0)
(1.08953 -0.238979 0)
(1.07431 -0.270534 0)
(1.0532 -0.301017 0)
(1.0256 -0.329849 0)
(0.990825 -0.3598 0)
(0.948425 -0.390116 0)
(0.899039 -0.407777 0)
(0.855086 -0.405085 0)
(0.831187 -0.397446 0)
(0.810349 -0.390308 0)
(0.781302 -0.377619 0)
(1.01599 -0.00159163 0)
(1.01759 -0.00520985 0)
(1.02041 -0.00831695 0)
(1.02434 -0.0119591 0)
(1.02949 -0.0156351 0)
(1.03563 -0.0199188 0)
(1.04275 -0.024844 0)
(1.05072 -0.0307326 0)
(1.0594 -0.0378499 0)
(1.06861 -0.0465333 0)
(1.07812 -0.0571414 0)
(1.08763 -0.0700552 0)
(1.09678 -0.0856468 0)
(1.10506 -0.104248 0)
(1.11181 -0.126103 0)
(1.1163 -0.151347 0)
(1.11775 -0.179948 0)
(1.11526 -0.211564 0)
(1.10808 -0.245723 0)
(1.09548 -0.281824 0)
(1.07637 -0.318545 0)
(1.05021 -0.353522 0)
(1.01905 -0.382177 0)
(0.985893 -0.398187 0)
(0.953482 -0.405792 0)
(0.918167 -0.423352 0)
(0.864327 -0.44029 0)
(0.804132 -0.439535 0)
(0.763694 -0.435499 0)
(1.01625 -0.0015909 0)
(1.01787 -0.00518772 0)
(1.02073 -0.00826425 0)
(1.02471 -0.0118479 0)
(1.02995 -0.0154316 0)
(1.0362 -0.0195945 0)
(1.0435 -0.0243575 0)
(1.05172 -0.0300502 0)
(1.06074 -0.0369381 0)
(1.07043 -0.0453689 0)
(1.08058 -0.0557182 0)
(1.09095 -0.0683972 0)
(1.10122 -0.0838231 0)
(1.11093 -0.102398 0)
(1.11947 -0.124458 0)
(1.12611 -0.15025 0)
(1.1301 -0.179926 0)
(1.13056 -0.213363 0)
(1.12655 -0.250256 0)
(1.11723 -0.290303 0)
(1.1014 -0.332491 0)
(1.07753 -0.374741 0)
(1.04414 -0.417096 0)
(0.999925 -0.463991 0)
(0.943373 -0.511572 0)
(0.87561 -0.534642 0)
(0.818371 -0.528674 0)
(0.783674 -0.523617 0)
(0.743262 -0.513305 0)
(1.01649 -0.00159068 0)
(1.01813 -0.00516896 0)
(1.02101 -0.00821841 0)
(1.02504 -0.0117483 0)
(1.03035 -0.0152472 0)
(1.0367 -0.0192974 0)
(1.04415 -0.0239066 0)
(1.05258 -0.029411 0)
(1.06191 -0.0360728 0)
(1.07201 -0.0442467 0)
(1.08274 -0.0543195 0)
(1.09389 -0.0667249 0)
(1.10518 -0.0819153 0)
(1.1162 -0.100346 0)
(1.12641 -0.122437 0)
(1.13511 -0.148524 0)
(1.14159 -0.178903 0)
(1.14507 -0.213686 0)
(1.14452 -0.252763 0)
(1.13893 -0.29606 0)
(1.12706 -0.343186 0)
(1.10694 -0.392834 0)
(1.07735 -0.442332 0)
(1.04037 -0.484833 0)
(0.99789 -0.510261 0)
(0.952292 -0.529924 0)
(0.895235 -0.569621 0)
(0.809699 -0.593015 0)
(0.726708 -0.587185 0)
(1.01671 -0.00159084 0)
(1.01836 -0.00515315 0)
(1.02126 -0.00817873 0)
(1.02532 -0.0116598 0)
(1.0307 -0.0150811 0)
(1.03713 -0.0190273 0)
(1.04472 -0.0234925 0)
(1.05333 -0.0288184 0)
(1.06292 -0.0352619 0)
(1.07339 -0.0431818 0)
(1.08463 -0.0529715 0)
(1.09646 -0.0650803 0)
(1.10867 -0.0799877 0)
(1.12088 -0.0981892 0)
(1.13264 -0.120169 0)
(1.14328 -0.146342 0)
(1.15215 -0.177109 0)
(1.15856 -0.212785 0)
(1.16159 -0.253491 0)
(1.16005 -0.299365 0)
(1.15265 -0.35042 0)
(1.13773 -0.405945 0)
(1.11271 -0.464167 0)
(1.07363 -0.525772 0)
(1.01885 -0.599384 0)
(0.945303 -0.677685 0)
(0.848822 -0.710792 0)
(0.763731 -0.702368 0)
(0.704966 -0.701299 0)
(1.0169 -0.00159128 0)
(1.01856 -0.00513985 0)
(1.02148 -0.00814448 0)
(1.02557 -0.0115815 0)
(1.031 -0.0149326 0)
(1.0375 -0.0187832 0)
(1.0452 -0.0231151 0)
(1.05397 -0.0282741 0)
(1.06379 -0.0345103 0)
(1.07458 -0.0421848 0)
(1.08626 -0.0516934 0)
(1.0987 -0.0634959 0)
(1.11173 -0.0780913 0)
(1.12502 -0.0960038 0)
(1.13818 -0.117767 0)
(1.15062 -0.143863 0)
(1.16173 -0.174771 0)
(1.17092 -0.21095 0)
(1.17745 -0.252751 0)
(1.18015 -0.300546 0)
(1.17756 -0.354592 0)
(1.16813 -0.414938 0)
(1.14967 -0.481633 0)
(1.11894 -0.552035 0)
(1.07616 -0.61526 0)
(1.02222 -0.655655 0)
(0.958915 -0.702023 0)
(0.865216 -0.786498 0)
(0.719754 -0.810306 0)
(1.01707 -0.00159193 0)
(1.01873 -0.00512872 0)
(1.02168 -0.00811497 0)
(1.02579 -0.0115125 0)
(1.03126 -0.0148002 0)
(1.03783 -0.0185639 0)
(1.04562 -0.0227736 0)
(1.05452 -0.0277783 0)
(1.06454 -0.0338204 0)
(1.07561 -0.0412616 0)
(1.08767 -0.0504978 0)
(1.10065 -0.0619942 0)
(1.11439 -0.0762633 0)
(1.12866 -0.0938503 0)
(1.14307 -0.115323 0)
(1.15715 -0.141218 0)
(1.17032 -0.172076 0)
(1.18211 -0.208451 0)
(1.19191 -0.250858 0)
(1.19881 -0.299929 0)
(1.20129 -0.356199 0)
(1.1976 -0.419958 0)
(1.18675 -0.492157 0)
(1.16484 -0.572439 0)
(1.12126 -0.660807 0)
(1.0565 -0.776756 0)
(0.970863 -0.919288 0)
(0.820118 -0.983882 0)
(0.647291 -0.967364 0)
(1.01722 -0.0015927 0)
(1.01889 -0.00511942 0)
(1.02185 -0.00808958 0)
(1.02598 -0.0114518 0)
(1.03149 -0.0146829 0)
(1.0381 -0.018368 0)
(1.04598 -0.0224665 0)
(1.055 -0.02733 0)
(1.06518 -0.0331925 0)
(1.07649 -0.0404155 0)
(1.08889 -0.0493924 0)
(1.10233 -0.0605912 0)
(1.11671 -0.0745325 0)
(1.13183 -0.0917763 0)
(1.14736 -0.112915 0)
(1.16289 -0.138522 0)
(1.17795 -0.169186 0)
(1.19212 -0.205532 0)
(1.20493 -0.24817 0)
(1.21573 -0.297914 0)
(1.22332 -0.355669 0)
(1.22569 -0.42184 0)
(1.22173 -0.49769 0)
(1.21017 -0.586859 0)
(1.1848 -0.688577 0)
(1.14164 -0.782439 0)
(1.076 -0.846241 0)
(0.98885 -0.962462 0)
(0.805201 -1.14807 0)
(1.01735 -0.00159354 0)
(1.01902 -0.00511168 0)
(1.02199 -0.00806777 0)
(1.02615 -0.0113988 0)
(1.03169 -0.0145794 0)
(1.03835 -0.0181938 0)
(1.04629 -0.0221921 0)
(1.0554 -0.0269273 0)
(1.06573 -0.0326255 0)
(1.07724 -0.0396467 0)
(1.08993 -0.0483808 0)
(1.10378 -0.059296 0)
(1.11872 -0.0729173 0)
(1.13457 -0.0898144 0)
(1.1511 -0.110595 0)
(1.16791 -0.13586 0)
(1.18464 -0.166227 0)
(1.20098 -0.202374 0)
(1.21654 -0.244973 0)
(1.23084 -0.294903 0)
(1.2432 -0.353383 0)
(1.2518 -0.421213 0)
(1.25475 -0.499305 0)
(1.25351 -0.5919 0)
(1.24526 -0.701832 0)
(1.2059 -0.820843 0)
(1.13615 -0.994607 0)
(1.05779 -1.29656 0)
(0.74203 -1.39998 0)
(0.997477 -0.00389224 0)
(0.997781 -0.00377532 0)
(0.997972 -0.003659 0)
(0.998065 -0.00354354 0)
(0.998072 -0.00342917 0)
(0.997993 -0.00331587 0)
(0.997825 -0.00320378 0)
(0.997554 -0.00309325 0)
(0.997164 -0.00298492 0)
(0.996635 -0.00287974 0)
(0.995948 -0.00277898 0)
(0.995091 -0.00268417 0)
(0.994066 -0.00259696 0)
(0.992893 -0.00251881 0)
(0.991616 -0.00245055 0)
(0.990304 -0.00239193 0)
(0.989048 -0.00234109 0)
(0.987951 -0.00229428 0)
(0.987117 -0.00224585 0)
(0.999347 -0.00847472 0)
(0.999077 -0.00845378 0)
(0.998923 -0.00843031 0)
(0.998861 -0.008406 0)
(0.99888 -0.0083804 0)
(0.998978 -0.00835278 0)
(0.999162 -0.00832181 0)
(0.999448 -0.00828525 0)
(0.99986 -0.00823978 0)
(1.00042 -0.00818088 0)
(1.00116 -0.00810276 0)
(1.00208 -0.00799843 0)
(1.00318 -0.00786007 0)
(1.00445 -0.00767972 0)
(1.00581 -0.00745046 0)
(1.00716 -0.00716782 0)
(1.0084 -0.00683136 0)
(1.00936 -0.00644598 0)
(1.00993 -0.0060225 0)
(0.99455 -0.0136141 0)
(0.99476 -0.0131961 0)
(0.994875 -0.0127697 0)
(0.994906 -0.012334 0)
(0.994853 -0.0118897 0)
(0.994703 -0.0114366 0)
(0.994436 -0.0109748 0)
(0.994019 -0.010505 0)
(0.993414 -0.0100288 0)
(0.992578 -0.00954934 0)
(0.99147 -0.00907144 0)
(0.990061 -0.00860222 0)
(0.988342 -0.0081511 0)
(0.986342 -0.00772935 0)
(0.984137 -0.00734902 0)
(0.981855 -0.00702113 0)
(0.979672 -0.00675339 0)
(0.977795 -0.00654797 0)
(0.976432 -0.00639984 0)
(0.990753 -0.0164392 0)
(0.990302 -0.016144 0)
(0.989952 -0.0158317 0)
(0.98968 -0.0155055 0)
(0.989473 -0.0151658 0)
(0.989331 -0.0148136 0)
(0.989266 -0.0144501 0)
(0.989306 -0.0140769 0)
(0.989491 -0.0136951 0)
(0.989875 -0.0133053 0)
(0.990515 -0.0129073 0)
(0.99147 -0.0124986 0)
(0.992776 -0.012075 0)
(0.994436 -0.0116296 0)
(0.996397 -0.011154 0)
(0.998541 -0.0106399 0)
(1.00068 -0.0100813 0)
(1.00258 -0.00947776 0)
(1.004 -0.0088361 0)
(0.984548 -0.0211826 0)
(0.984354 -0.0204669 0)
(0.984092 -0.0197366 0)
(0.983777 -0.0189909 0)
(0.983413 -0.0182317 0)
(0.982997 -0.0174607 0)
(0.982513 -0.0166801 0)
(0.981937 -0.015893 0)
(0.981231 -0.0151036 0)
(0.980349 -0.0143174 0)
(0.979233 -0.013542 0)
(0.977828 -0.0127872 0)
(0.97609 -0.0120656 0)
(0.974011 -0.0113926 0)
(0.971639 -0.0107843 0)
(0.969102 -0.0102559 0)
(0.96661 -0.0098174 0)
(0.964442 -0.00946949 0)
(0.962898 -0.00920069 0)
(0.977873 -0.0277168 0)
(0.977136 -0.0272188 0)
(0.976484 -0.0267094 0)
(0.975906 -0.0261925 0)
(0.975403 -0.0256677 0)
(0.974988 -0.0251357 0)
(0.974687 -0.0245975 0)
(0.974539 -0.0240543 0)
(0.974602 -0.0235068 0)
(0.974947 -0.0229547 0)
(0.975661 -0.0223956 0)
(0.976832 -0.0218237 0)
(0.978531 -0.0212286 0)
(0.980784 -0.0205949 0)
(0.98354 -0.0199022 0)
(0.986641 -0.0191282 0)
(0.989812 -0.0182533 0)
(0.99268 -0.0172666 0)
(0.994835 -0.0161715 0)
(0.970585 -0.0364463 0)
(0.970138 -0.0354034 0)
(0.969644 -0.0343385 0)
(0.969124 -0.0332519 0)
(0.96859 -0.0321464 0)
(0.968043 -0.0310232 0)
(0.967477 -0.0298834 0)
(0.96687 -0.0287277 0)
(0.966181 -0.027557 0)
(0.965349 -0.0263726 0)
(0.964288 -0.0251767 0)
(0.96289 -0.0239743 0)
(0.961047 -0.022774 0)
(0.958678 -0.0215893 0)
(0.95577 -0.0204385 0)
(0.952427 -0.0193418 0)
(0.948903 -0.0183171 0)
(0.945593 -0.0173735 0)
(0.942974 -0.0165045 0)
(0.962271 -0.0451575 0)
(0.961161 -0.0444311 0)
(0.960138 -0.0436778 0)
(0.95919 -0.0429014 0)
(0.958317 -0.0420995 0)
(0.957528 -0.0412705 0)
(0.956844 -0.0404133 0)
(0.956299 -0.0395265 0)
(0.955944 -0.0386087 0)
(0.955851 -0.0376582 0)
(0.956118 -0.0366722 0)
(0.956857 -0.0356455 0)
(0.958182 -0.0345697 0)
(0.960175 -0.0334309 0)
(0.96283 -0.0322099 0)
(0.966007 -0.0308839 0)
(0.969393 -0.0294315 0)
(0.972515 -0.0278408 0)
(0.974818 -0.0261173 0)
(0.953624 -0.057388 0)
(0.952733 -0.0558757 0)
(0.951804 -0.0543227 0)
(0.950858 -0.0527304 0)
(0.949905 -0.0511021 0)
(0.948948 -0.0494389 0)
(0.947979 -0.0477411 0)
(0.946982 -0.0460087 0)
(0.945919 -0.044241 0)
(0.944728 -0.0424375 0)
(0.943317 -0.0405979 0)
(0.941561 -0.0387238 0)
(0.939316 -0.0368205 0)
(0.936449 -0.0348988 0)
(0.932893 -0.0329762 0)
(0.928723 -0.0310763 0)
(0.924215 -0.0292235 0)
(0.919866 -0.027435 0)
(0.916315 -0.0257124 0)
(0.943482 -0.0664562 0)
(0.941733 -0.0653658 0)
(0.94008 -0.0642067 0)
(0.938504 -0.0629844 0)
(0.936998 -0.0616979 0)
(0.935564 -0.0603471 0)
(0.934212 -0.0589331 0)
(0.932966 -0.057457 0)
(0.931867 -0.0559205 0)
(0.930979 -0.0543253 0)
(0.930394 -0.0526735 0)
(0.930238 -0.050966 0)
(0.930656 -0.0492014 0)
(0.931779 -0.0473734 0)
(0.93367 -0.0454687 0)
(0.936239 -0.0434673 0)
(0.939186 -0.0413458 0)
(0.941983 -0.0390866 0)
(0.943973 -0.0366898 0)
(0.933225 -0.0820836 0)
(0.931462 -0.0799759 0)
(0.929678 -0.0778007 0)
(0.927895 -0.0755621 0)
(0.926127 -0.0732637 0)
(0.92438 -0.0709067 0)
(0.922653 -0.0684919 0)
(0.920936 -0.06602 0)
(0.919203 -0.0634915 0)
(0.917408 -0.0609071 0)
(0.915471 -0.0582677 0)
(0.913273 -0.0555752 0)
(0.910661 -0.0528343 0)
(0.907469 -0.0500547 0)
(0.903574 -0.0472545 0)
(0.89899 -0.0444607 0)
(0.893966 -0.0417064 0)
(0.889039 -0.0390202 0)
(0.884965 -0.0364126 0)
(0.921444 -0.0932534 0)
(0.918701 -0.0916372 0)
(0.916079 -0.0898885 0)
(0.913559 -0.0880175 0)
(0.911129 -0.0860307 0)
(0.908788 -0.0839362 0)
(0.906543 -0.0817432 0)
(0.904411 -0.0794609 0)
(0.902424 -0.0770986 0)
(0.900633 -0.0746653 0)
(0.899118 -0.0721696 0)
(0.897996 -0.0696193 0)
(0.897417 -0.0670191 0)
(0.897543 -0.0643679 0)
(0.898491 -0.0616541 0)
(0.900241 -0.0588517 0)
(0.90253 -0.055921 0)
(0.904804 -0.0528196 0)
(0.9063 -0.0495228 0)
(0.90946 -0.112903 0)
(0.906388 -0.110052 0)
(0.903342 -0.107099 0)
(0.900349 -0.104052 0)
(0.897433 -0.100912 0)
(0.894607 -0.0976762 0)
(0.891878 -0.0943434 0)
(0.889243 -0.0909117 0)
(0.886688 -0.0873805 0)
(0.884179 -0.0837495 0)
(0.881655 -0.0800192 0)
(0.87901 -0.0761905 0)
(0.87609 -0.0722667 0)
(0.872698 -0.0682567 0)
(0.868639 -0.0641812 0)
(0.86382 -0.0600789 0)
(0.858388 -0.0560087 0)
(0.852862 -0.0520387 0)
(0.848113 -0.0482207 0)
(0.895964 -0.128311 0)
(0.891789 -0.125843 0)
(0.887782 -0.123124 0)
(0.883936 -0.12018 0)
(0.880235 -0.11703 0)
(0.87668 -0.113704 0)
(0.873279 -0.110224 0)
(0.870043 -0.106617 0)
(0.866995 -0.102906 0)
(0.864172 -0.0991166 0)
(0.861632 -0.0952702 0)
(0.85947 -0.0913892 0)
(0.857821 -0.087494 0)
(0.856866 -0.0835991 0)
(0.856787 -0.0797056 0)
(0.85768 -0.0757896 0)
(0.859404 -0.0717926 0)
(0.861442 -0.0676261 0)
(0.862903 -0.0632036 0)
(0.881606 -0.152422 0)
(0.876601 -0.148467 0)
(0.87174 -0.14434 0)
(0.867024 -0.140039 0)
(0.862509 -0.135574 0)
(0.858217 -0.130934 0)
(0.854159 -0.126123 0)
(0.850347 -0.121146 0)
(0.846776 -0.116009 0)
(0.843431 -0.110722 0)
(0.84027 -0.105293 0)
(0.837215 -0.0997313 0)
(0.834127 -0.0940457 0)
(0.830799 -0.0882468 0)
(0.826958 -0.0823555 0)
(0.822346 -0.0764178 0)
(0.816881 -0.0705216 0)
(0.810916 -0.0647988 0)
(0.805396 -0.059393 0)
(0.865676 -0.174031 0)
(0.859275 -0.170147 0)
(0.853092 -0.165749 0)
(0.847228 -0.160957 0)
(0.841654 -0.155791 0)
(0.836386 -0.150325 0)
(0.831452 -0.144611 0)
(0.826864 -0.138701 0)
(0.822644 -0.132654 0)
(0.818816 -0.126522 0)
(0.815412 -0.12036 0)
(0.81249 -0.114223 0)
(0.810142 -0.108167 0)
(0.808523 -0.102243 0)
(0.807849 -0.096493 0)
(0.808349 -0.0909288 0)
(0.810118 -0.0855017 0)
(0.812844 -0.0800788 0)
(0.815563 -0.074454 0)
(0.848044 -0.203913 0)
(0.839932 -0.198125 0)
(0.832263 -0.192037 0)
(0.824921 -0.185517 0)
(0.81802 -0.178642 0)
(0.811627 -0.171412 0)
(0.805749 -0.163857 0)
(0.800435 -0.156028 0)
(0.79569 -0.147966 0)
(0.791519 -0.139721 0)
(0.787901 -0.13134 0)
(0.784781 -0.122866 0)
(0.782049 -0.114332 0)
(0.77951 -0.105767 0)
(0.776846 -0.0971948 0)
(0.773625 -0.0886562 0)
(0.769405 -0.0802466 0)
(0.764068 -0.0721519 0)
(0.758335 -0.0646782 0)
(0.828619 -0.233961 0)
(0.818447 -0.22786 0)
(0.808573 -0.220635 0)
(0.799325 -0.212692 0)
(0.79075 -0.204052 0)
(0.782844 -0.194831 0)
(0.775729 -0.185161 0)
(0.769411 -0.175132 0)
(0.76394 -0.164873 0)
(0.759325 -0.1545 0)
(0.75558 -0.144139 0)
(0.75271 -0.133922 0)
(0.750741 -0.123981 0)
(0.749738 -0.114454 0)
(0.749854 -0.105474 0)
(0.751365 -0.0971554 0)
(0.754628 -0.0895423 0)
(0.759801 -0.0825571 0)
(0.766254 -0.0758439 0)
(0.806995 -0.272751 0)
(0.793617 -0.264013 0)
(0.781092 -0.254583 0)
(0.769387 -0.244173 0)
(0.758516 -0.232852 0)
(0.748778 -0.220802 0)
(0.740138 -0.208064 0)
(0.732737 -0.194834 0)
(0.726593 -0.18124 0)
(0.721747 -0.167444 0)
(0.718182 -0.153592 0)
(0.715861 -0.139823 0)
(0.714681 -0.126255 0)
(0.71446 -0.112986 0)
(0.714878 -0.10008 0)
(0.715404 -0.0875783 0)
(0.715236 -0.0755688 0)
(0.713485 -0.064185 0)
(0.709741 -0.0538999 0)
(0.783582 -0.314481 0)
(0.766434 -0.304907 0)
(0.750257 -0.293345 0)
(0.734986 -0.28007 0)
(0.7213 -0.265575 0)
(0.708988 -0.249799 0)
(0.698405 -0.233146 0)
(0.689553 -0.215773 0)
(0.682547 -0.197952 0)
(0.677387 -0.179939 0)
(0.674092 -0.161996 0)
(0.672611 -0.144399 0)
(0.672894 -0.127433 0)
(0.674882 -0.111397 0)
(0.678566 -0.0966006 0)
(0.684077 -0.0833762 0)
(0.691835 -0.071957 0)
(0.702438 -0.0626241 0)
(0.716619 -0.0550621 0)
(0.757306 -0.3665 0)
(0.73539 -0.35397 0)
(0.713978 -0.338786 0)
(0.694778 -0.322007 0)
(0.67708 -0.302954 0)
(0.661739 -0.282472 0)
(0.648669 -0.260633 0)
(0.638132 -0.237844 0)
(0.630146 -0.214461 0)
(0.624807 -0.190803 0)
(0.62207 -0.167224 0)
(0.621916 -0.144047 0)
(0.624231 -0.121581 0)
(0.628834 -0.1001 0)
(0.635401 -0.0798308 0)
(0.643383 -0.0608627 0)
(0.651722 -0.0434252 0)
(0.659115 -0.0273777 0)
(0.662387 -0.0131783 0)
(0.731394 -0.425483 0)
(0.700991 -0.409813 0)
(0.674116 -0.391958 0)
(0.648588 -0.369874 0)
(0.626317 -0.345589 0)
(0.606955 -0.318955 0)
(0.59098 -0.290604 0)
(0.578379 -0.261112 0)
(0.569345 -0.230831 0)
(0.563783 -0.200286 0)
(0.561768 -0.169889 0)
(0.563202 -0.140097 0)
(0.568027 -0.11139 0)
(0.576117 -0.0843012 0)
(0.587342 -0.0594139 0)
(0.601588 -0.037575 0)
(0.619312 -0.0191902 0)
(0.640333 -0.00563092 0)
(0.668587 0.00266876 0)
(0.699145 -0.494981 0)
(0.662725 -0.477795 0)
(0.626534 -0.453134 0)
(0.594683 -0.425293 0)
(0.566578 -0.39372 0)
(0.542919 -0.359229 0)
(0.523659 -0.32303 0)
(0.509088 -0.285303 0)
(0.498878 -0.246909 0)
(0.493261 -0.208209 0)