/*--------------------------------*- C++ -*----------------------------------*\
  =========                 |
  \\      /  F ield         | OpenFOAM: The Open Source CFD Toolbox
   \\    /   O peration     | Website:  https://openfoam.org
    \\  /    A nd           | Version:  10
     \\/     M anipulation  |
\*---------------------------------------------------------------------------*/
FoamFile
{
    format      ascii;
    class       volVectorField;
    location    "0";
    object      U;
}
// * * * * * * * * * * * * * * * * * * * * * * * * * * * * * * * * * * * * * //

dimensions      [0 1 -1 0 0 0 0];

internalField   nonuniform List<vector> 
18483
(
(0.999995 -0.000156722 0)
(0.999996 -0.000561012 0)
(0.999997 -0.000898828 0)
(0.999999 -0.00126713 0)
(1 -0.00162148 0)
(1 -0.00196637 0)
(1.00001 -0.00228442 0)
(1.00001 -0.0025632 0)
(1.00001 -0.00279162 0)
(1.00001 -0.00296372 0)
(1 -0.00308145 0)
(0.999982 -0.0031562 0)
(0.999943 -0.00320824 0)
(0.999877 -0.00327936 0)
(0.999776 -0.00341223 0)
(0.999623 -0.00362504 0)
(0.999376 -0.00386204 0)
(0.998857 -0.00401215 0)
(0.99758 -0.00396968 0)
(0.994891 -0.00364196 0)
(0.991052 -0.00307969 0)
(0.988025 -0.00250688 0)
(0.987692 -0.00205378 0)
(0.989682 -0.00166231 0)
(0.992322 -0.00129079 0)
(0.994513 -0.000952873 0)
(0.996012 -0.000658245 0)
(0.996944 -0.000407839 0)
(0.997493 -0.000197706 0)
(1.0005 -0.000466886 0)
(1.00052 -0.00166403 0)
(1.00057 -0.00266731 0)
(1.00063 -0.00376519 0)
(1.00068 -0.00482281 0)
(1.0007 -0.00585791 0)
(1.0007 -0.00681882 0)
(1.00066 -0.00767233 0)
(1.00059 -0.00838782 0)
(1.00047 -0.00895009 0)
(1.00034 -0.00935883 0)
(1.00021 -0.00963514 0)
(1.00012 -0.00979371 0)
(1.00012 -0.00978618 0)
(1.0002 -0.00954435 0)
(1.0003 -0.00903038 0)
(1.00032 -0.00834062 0)
(1.00025 -0.00768095 0)
(1.00038 -0.00723165 0)
(1.00156 -0.00713354 0)
(1.0044 -0.00734683 0)
(1.0075 -0.00752796 0)
(1.00825 -0.00746348 0)
(1.00629 -0.00735272 0)
(1.0035 -0.0073386 0)
(1.00123 -0.00737807 0)
(0.999725 -0.00742501 0)
(0.998796 -0.00745916 0)
(0.998226 -0.00747513 0)
(1.00143 -0.000720012 0)
(1.00151 -0.00256603 0)
(1.00168 -0.00414454 0)
(1.00185 -0.00590824 0)
(1.00202 -0.00764942 0)
(1.00214 -0.00940347 0)
(1.00218 -0.0110825 0)
(1.00212 -0.0126262 0)
(1.00194 -0.0139657 0)
(1.00167 -0.0150497 0)
(1.00133 -0.0158401 0)
(1.00096 -0.0163119 0)
(1.00061 -0.0164549 0)
(1.00031 -0.0163141 0)
(0.999995 -0.0160557 0)
(0.999612 -0.0158989 0)
(0.999157 -0.0158915 0)
(0.998547 -0.0158875 0)
(0.997328 -0.0157159 0)
(0.994591 -0.0153154 0)
(0.989896 -0.0147811 0)
(0.984987 -0.014366 0)
(0.983091 -0.0141737 0)
(0.984885 -0.0138939 0)
(0.988017 -0.0133426 0)
(0.990645 -0.0126686 0)
(0.992442 -0.0120118 0)
(0.99361 -0.0114286 0)
(0.994371 -0.0109358 0)
(1.00253 -0.000915232 0)
(1.00271 -0.00326456 0)
(1.00302 -0.00531976 0)
(1.00338 -0.00767322 0)
(1.00374 -0.0100642 0)
(1.00402 -0.0125484 0)
(1.00417 -0.0150064 0)
(1.00412 -0.0173515 0)
(1.00385 -0.0194743 0)
(1.00336 -0.0212873 0)
(1.00266 -0.0227237 0)
(1.00179 -0.0237478 0)
(1.00078 -0.0243778 0)
(0.99969 -0.0246989 0)
(0.998561 -0.0247573 0)
(0.997477 -0.0243827 0)
(0.996492 -0.0234268 0)
(0.99569 -0.022068 0)
(0.995641 -0.0207004 0)
(0.997711 -0.0196208 0)
(1.00269 -0.0188472 0)
(1.00806 -0.0180781 0)
(1.00916 -0.0171417 0)
(1.00526 -0.0163914 0)
(1.00002 -0.0160424 0)
(0.996084 -0.0158824 0)
(0.99361 -0.0157288 0)
(0.992101 -0.0155348 0)
(0.991155 -0.0152986 0)
(1.00363 -0.00107364 0)
(1.00392 -0.00382881 0)
(1.00442 -0.00628211 0)
(1.00502 -0.00915043 0)
(1.00563 -0.0121341 0)
(1.00616 -0.0153134 0)
(1.00649 -0.0185503 0)
(1.00654 -0.0217408 0)
(1.00626 -0.0247415 0)
(1.00562 -0.0274286 0)
(1.00465 -0.0296984 0)
(1.00339 -0.031487 0)
(1.00195 -0.0327721 0)
(1.00043 -0.033546 0)
(0.998944 -0.0338276 0)
(0.997517 -0.033767 0)
(0.996105 -0.0336907 0)
(0.994701 -0.0337946 0)
(0.992946 -0.0338738 0)
(0.989436 -0.0336373 0)
(0.982684 -0.0330486 0)
(0.974809 -0.0324591 0)
(0.971579 -0.0320878 0)
(0.974595 -0.0315021 0)
(0.979243 -0.0304283 0)
(0.982297 -0.0291748 0)
(0.983875 -0.0280075 0)
(0.984658 -0.0269963 0)
(0.985039 -0.0261532 0)
(1.00471 -0.00121095 0)
(1.00513 -0.00431064 0)
(1.00584 -0.00710113 0)
(1.00673 -0.0104106 0)
(1.00767 -0.01391 0)
(1.00853 -0.0177118 0)
(1.00916 -0.0216701 0)
(1.00945 -0.0256714 0)
(1.00928 -0.029541 0)
(1.00863 -0.0331131 0)
(1.00749 -0.0362353 0)
(1.00592 -0.0387926 0)
(1.00401 -0.0407138 0)
(1.00186 -0.0419618 0)
(0.99954 -0.042567 0)
(0.997106 -0.0425738 0)
(0.994682 -0.0418475 0)
(0.992513 -0.0402606 0)
(0.991306 -0.0381021 0)
(0.992875 -0.0359314 0)
(0.998928 -0.0341345 0)
(1.00647 -0.0325955 0)
(1.00792 -0.0310483 0)
(1.00119 -0.0298586 0)
(0.992659 -0.0293573 0)
(0.98689 -0.029153 0)
(0.983516 -0.0289103 0)
(0.981456 -0.0285884 0)
(0.980123 -0.028194 0)
(1.0058 -0.00133155 0)
(1.00636 -0.00472504 0)
(1.0073 -0.00779723 0)
(1.0085 -0.0114728 0)
(1.00983 -0.0154004 0)
(1.01109 -0.0197328 0)
(1.01212 -0.0243263 0)
(1.01274 -0.0290716 0)
(1.01279 -0.0337797 0)
(1.01219 -0.0382628 0)
(1.01089 -0.0423395 0)
(1.00893 -0.0458623 0)
(1.0064 -0.0487356 0)
(1.00345 -0.050913 0)
(1.00022 -0.0524038 0)
(0.996881 -0.0533036 0)
(0.9936 -0.0539148 0)
(0.990466 -0.0546584 0)
(0.987162 -0.055574 0)
(0.982032 -0.0561359 0)
(0.972784 -0.0557907 0)
(0.961654 -0.0545877 0)
(0.956977 -0.0531525 0)
(0.961758 -0.0515813 0)
(0.968375 -0.049513 0)
(0.971608 -0.0472961 0)
(0.972578 -0.0453366 0)
(0.97268 -0.0436663 0)
(0.972427 -0.042276 0)
(1.00689 -0.00143394 0)
(1.00759 -0.00506827 0)
(1.00878 -0.00836595 0)
(1.01031 -0.0123317 0)
(1.01204 -0.0165983 0)
(1.01375 -0.0213651 0)
(1.01524 -0.0265022 0)
(1.01627 -0.0319212 0)
(1.01664 -0.0374375 0)
(1.01621 -0.0428545 0)
(1.01492 -0.0479565 0)
(1.01279 -0.0525354 0)
(1.00995 -0.0564161 0)
(1.00656 -0.0594558 0)
(1.00278 -0.0615542 0)
(0.998756 -0.0626546 0)
(0.994638 -0.0626249 0)
(0.990704 -0.0611984 0)
(0.987594 -0.0583847 0)
(0.987021 -0.0549132 0)
(0.991399 -0.0518991 0)
(0.998896 -0.0500793 0)
(1.00045 -0.0489996 0)
(0.991498 -0.0480031 0)
(0.979995 -0.04746 0)
(0.972854 -0.0472489 0)
(0.968927 -0.0468889 0)
(0.966399 -0.0463892 0)
(0.964662 -0.0457921 0)
(1.00796 -0.00151594 0)
(1.0088 -0.0053348 0)
(1.01022 -0.00880147 0)
(1.01207 -0.0129833 0)
(1.01422 -0.0175026 0)
(1.01641 -0.0226091 0)
(1.0184 -0.0281944 0)
(1.01993 -0.0342013 0)
(1.02076 -0.0404584 0)
(1.0207 -0.0467642 0)
(1.01963 -0.0528729 0)
(1.01753 -0.0585302 0)
(1.01446 -0.0635176 0)
(1.01051 -0.0676823 0)
(1.0058 -0.070964 0)
(1.00048 -0.0734254 0)
(0.994731 -0.0753041 0)
(0.988787 -0.0770646 0)
(0.982725 -0.0790827 0)
(0.975665 -0.0809974 0)
(0.965377 -0.0816734 0)
(0.952598 -0.0802543 0)
(0.945423 -0.0774608 0)
(0.949263 -0.0746916 0)
(0.956202 -0.0718718 0)
(0.958708 -0.068797 0)
(0.958487 -0.0660654 0)
(0.957649 -0.0637495 0)
(0.956602 -0.0617967 0)
(1.00898 -0.00157724 0)
(1.00994 -0.00552529 0)
(1.01158 -0.00910744 0)
(1.01376 -0.0134366 0)
(1.01631 -0.0181287 0)
(1.01898 -0.0234834 0)
(1.02152 -0.0294185 0)
(1.02363 -0.0359143 0)
(1.02502 -0.0428244 0)
(1.02544 -0.0499641 0)
(1.0247 -0.0570923 0)
(1.02269 -0.0639479 0)
(1.01941 -0.0702816 0)
(1.01497 -0.0758791 0)
(1.0096 -0.0805459 0)
(1.00359 -0.0840757 0)
(0.997271 -0.0861985 0)
(0.991006 -0.0864596 0)
(0.985295 -0.0844914 0)
(0.981242 -0.0807699 0)
(0.981137 -0.0767916 0)
(0.985658 -0.074217 0)
(0.987644 -0.0734323 0)
(0.979025 -0.0728118 0)
(0.965519 -0.071908 0)
(0.956788 -0.0714434 0)
(0.952165 -0.0708702 0)
(0.948923 -0.0700405 0)
(0.946557 -0.0691081 0)
(1.00992 -0.00161971 0)
(1.011 -0.00564748 0)
(1.01285 -0.00929809 0)
(1.01532 -0.013715 0)
(1.01826 -0.0185089 0)
(1.02142 -0.0240282 0)
(1.02452 -0.0302194 0)
(1.02725 -0.0371056 0)
(1.02927 -0.0445819 0)
(1.03027 -0.0525016 0)
(1.03001 -0.0606436 0)
(1.02832 -0.0687347 0)
(1.02518 -0.0764548 0)
(1.0207 -0.0834675 0)
(1.01504 -0.08947 0)
(1.00835 -0.0942564 0)
(1.00067 -0.0978421 0)
(0.992074 -0.100693 0)
(0.982809 -0.103609 0)
(0.973075 -0.106825 0)
(0.961832 -0.109334 0)
(0.948227 -0.109523 0)
(0.937179 -0.106805 0)
(0.936294 -0.103054 0)
(0.94156 -0.0996658 0)
(0.943155 -0.095897 0)
(0.941399 -0.0922568 0)
(0.939377 -0.0892203 0)
(0.937353 -0.0866065 0)
(1.01079 -0.00164642 0)
(1.01197 -0.00571311 0)
(1.01401 -0.00939361 0)
(1.01675 -0.0138492 0)
(1.02006 -0.0186856 0)
(1.02369 -0.0242967 0)
(1.02735 -0.0306589 0)
(1.03072 -0.0378403 0)
(1.03344 -0.0457846 0)
(1.03516 -0.0543898 0)
(1.03559 -0.0634569 0)
(1.03451 -0.0727089 0)
(1.03181 -0.081801 0)
(1.02744 -0.0903695 0)
(1.02144 -0.0981101 0)
(1.01391 -0.104801 0)
(1.0051 -0.110203 0)
(0.995546 -0.113782 0)
(0.986247 -0.114686 0)
(0.978311 -0.112636 0)
(0.973239 -0.108682 0)
(0.972877 -0.104949 0)
(0.973976 -0.103477 0)
(0.966756 -0.103356 0)
(0.951608 -0.102373 0)
(0.939896 -0.101428 0)
(0.933782 -0.100641 0)
(0.929291 -0.0993268 0)
(0.925785 -0.0978404 0)
(1.01157 -0.00166072 0)
(1.01285 -0.0057346 0)
(1.01505 -0.00941507 0)
(1.01805 -0.0138711 0)
(1.0217 -0.0187024 0)
(1.02578 -0.0243445 0)
(1.02999 -0.0308014 0)
(1.03401 -0.0381838 0)
(1.03748 -0.046485 0)
(1.04003 -0.0556525 0)
(1.04129 -0.0655302 0)
(1.04097 -0.0758779 0)
(1.03882 -0.0863807 0)
(1.0347 -0.096662 0)
(1.02862 -0.106303 0)
(1.02076 -0.114844 0)
(1.01136 -0.121848 0)
(1.00063 -0.127111 0)
(0.988761 -0.131375 0)
(0.976002 -0.135932 0)
(0.962313 -0.140677 0)
(0.946949 -0.143603 0)
(0.931828 -0.142556 0)
(0.923965 -0.138344 0)
(0.925123 -0.134039 0)
(0.925633 -0.12977 0)
(0.921967 -0.125084 0)
(0.918085 -0.121146 0)
(0.91463 -0.117773 0)
(1.01227 -0.00166566 0)
(1.01363 -0.00572327 0)
(1.01599 -0.00938162 0)
(1.01921 -0.0138094 0)
(1.02318 -0.0185992 0)
(1.02767 -0.0242232 0)
(1.03241 -0.0307082 0)
(1.03708 -0.038205 0)
(1.04132 -0.0467566 0)
(1.04472 -0.0563681 0)
(1.04689 -0.0669478 0)
(1.04743 -0.0783125 0)
(1.04605 -0.0901753 0)
(1.04255 -0.10213 0)
(1.03685 -0.113667 0)
(1.02894 -0.124279 0)
(1.01883 -0.13363 0)
(1.00675 -0.14143 0)
(0.993639 -0.14698 0)
(0.981213 -0.149051 0)
(0.971043 -0.147352 0)
(0.964876 -0.143611 0)
(0.962421 -0.141006 0)
(0.955638 -0.141113 0)
(0.939292 -0.140765 0)
(0.922944 -0.139152 0)
(0.913692 -0.137876 0)
(0.907246 -0.135933 0)
(0.901838 -0.133508 0)
(1.01289 -0.00166383 0)
(1.01433 -0.00568863 0)
(1.01682 -0.00930939 0)
(1.02025 -0.013688 0)
(1.02451 -0.0184102 0)
(1.02937 -0.0239783 0)
(1.0346 -0.030437 0)
(1.0399 -0.0379743 0)
(1.04488 -0.0466821 0)
(1.04916 -0.0566248 0)
(1.05229 -0.067778 0)
(1.05387 -0.0800162 0)
(1.05354 -0.0930898 0)
(1.05099 -0.106622 0)
(1.04594 -0.120133 0)
(1.0382 -0.133092 0)
(1.02781 -0.14499 0)
(1.01519 -0.155206 0)
(1.00097 -0.163273 0)
(0.985474 -0.170069 0)
(0.968498 -0.177139 0)
(0.950039 -0.18364 0)
(0.930368 -0.186234 0)
(0.914039 -0.183037 0)
(0.907664 -0.177547 0)
(0.906043 -0.172661 0)
(0.900443 -0.166991 0)
(0.893623 -0.161664 0)
(0.888004 -0.157258 0)
(1.01345 -0.00165727 0)
(1.01495 -0.00563825 0)
(1.01756 -0.00921129 0)
(1.02117 -0.0135262 0)
(1.02569 -0.018163 0)
(1.03089 -0.023648 0)
(1.03658 -0.0300377 0)
(1.04246 -0.0375546 0)
(1.04817 -0.0463339 0)
(1.05332 -0.0564935 0)
(1.05749 -0.0680724 0)
(1.06023 -0.0810134 0)
(1.06111 -0.0951398 0)
(1.05968 -0.110156 0)
(1.05554 -0.125627 0)
(1.04842 -0.140949 0)
(1.03829 -0.155497 0)
(1.02532 -0.16873 0)
(1.0099 -0.180045 0)
(0.993074 -0.188385 0)
(0.97699 -0.192115 0)
(0.963988 -0.190903 0)
(0.955299 -0.187964 0)
(0.946658 -0.187866 0)
(0.929421 -0.189007 0)
(0.907227 -0.187337 0)
(0.891721 -0.185079 0)
(0.881936 -0.182477 0)
(0.87347 -0.178673 0)
(1.01395 -0.00164746 0)
(1.01551 -0.00557788 0)
(1.01822 -0.00909727 0)
(1.02199 -0.0133394 0)
(1.02673 -0.0178791 0)
(1.03225 -0.0232619 0)
(1.03836 -0.029551 0)
(1.04477 -0.0369979 0)
(1.05118 -0.0457734 0)
(1.05719 -0.0560434 0)
(1.06239 -0.0679094 0)
(1.06632 -0.0813954 0)
(1.06846 -0.0964136 0)
(1.06832 -0.112751 0)
(1.06543 -0.130028 0)
(1.05937 -0.147652 0)
(1.04989 -0.165011 0)
(1.03701 -0.181527 0)
(1.02114 -0.196266 0)
(1.00289 -0.208469 0)
(0.982619 -0.219308 0)
(0.96021 -0.230322 0)
(0.9353 -0.238908 0)
(0.909661 -0.239792 0)
(0.891716 -0.23405 0)
(0.884507 -0.228042 0)
(0.87686 -0.221809 0)
(0.865731 -0.214456 0)
(0.856332 -0.208286 0)
(1.01441 -0.00163551 0)
(1.01602 -0.00551185 0)
(1.01881 -0.00897475 0)
(1.02271 -0.013139 0)
(1.02767 -0.017575 0)
(1.03346 -0.0228432 0)
(1.03994 -0.0290091 0)
(1.04686 -0.0363478 0)
(1.05391 -0.0450586 0)
(1.06073 -0.055351 0)
(1.06692 -0.0673859 0)
(1.07201 -0.0812675 0)
(1.07548 -0.0969914 0)
(1.07681 -0.114426 0)
(1.07545 -0.133297 0)
(1.0708 -0.153109 0)
(1.06244 -0.173257 0)
(1.05031 -0.193101 0)
(1.03452 -0.211721 0)
(1.01536 -0.227914 0)
(0.994194 -0.240123 0)
(0.973941 -0.246168 0)
(0.956809 -0.245977 0)
(0.942309 -0.245378 0)
(0.923345 -0.248677 0)
(0.895398 -0.249525 0)
(0.869258 -0.246321 0)
(0.852662 -0.242934 0)
(0.839409 -0.237662 0)
(1.01482 -0.00162233 0)
(1.01647 -0.00544341 0)
(1.01935 -0.00884912 0)
(1.02337 -0.0129335 0)
(1.0285 -0.0172632 0)
(1.03454 -0.0224097 0)
(1.04136 -0.0284373 0)
(1.04872 -0.0356408 0)
(1.05636 -0.0442416 0)
(1.06394 -0.0544866 0)
(1.07106 -0.0665869 0)
(1.07731 -0.0807162 0)
(1.08216 -0.0969505 0)
(1.08506 -0.115251 0)
(1.08538 -0.135479 0)
(1.08243 -0.157264 0)
(1.07566 -0.18003 0)
(1.06479 -0.203164 0)
(1.04964 -0.225778 0)
(1.03026 -0.246474 0)
(1.00727 -0.264586 0)
(0.981066 -0.281718 0)
(0.950922 -0.298495 0)
(0.91635 -0.309428 0)
(0.883431 -0.308206 0)
(0.863379 -0.300769 0)
(0.851379 -0.29426 0)
(0.834958 -0.28534 0)
(0.818513 -0.27616 0)
(1.01519 -0.00160856 0)
(1.01688 -0.00537488 0)
(1.01982 -0.00872431 0)
(1.02395 -0.0127291 0)
(1.02924 -0.0169529 0)
(1.03549 -0.0219751 0)
(1.04261 -0.0278558 0)
(1.05038 -0.0349062 0)
(1.05856 -0.0433638 0)
(1.06683 -0.0535057 0)
(1.07485 -0.0655819 0)
(1.08221 -0.0798257 0)
(1.08843 -0.0963956 0)
(1.0929 -0.115348 0)
(1.09498 -0.136674 0)
(1.09395 -0.160146 0)
(1.08913 -0.185284 0)
(1.08 -0.211548 0)
(1.06616 -0.238134 0)
(1.04737 -0.2637 0)
(1.02412 -0.2867 0)
(0.998271 -0.304628 0)
(0.972135 -0.313907 0)
(0.947441 -0.316039 0)
(0.923702 -0.320922 0)
(0.89181 -0.328338 0)
(0.852017 -0.327674 0)
(0.821097 -0.323127 0)
(0.799702 -0.31718 0)
(1.01553 -0.00159467 0)
(1.01725 -0.00530791 0)
(1.02025 -0.0086031 0)
(1.02446 -0.0125302 0)
(1.0299 -0.0166508 0)
(1.03634 -0.0215493 0)
(1.04373 -0.0272794 0)
(1.05186 -0.034166 0)
(1.06052 -0.0424568 0)
(1.06944 -0.0524522 0)
(1.07829 -0.064434 0)
(1.0867 -0.0786846 0)
(1.09421 -0.0954426 0)
(1.10021 -0.114848 0)
(1.1041 -0.137005 0)
(1.10513 -0.161847 0)
(1.10252 -0.189034 0)
(1.0956 -0.21812 0)
(1.08371 -0.248422 0)
(1.06637 -0.278693 0)
(1.04361 -0.307411 0)
(1.01562 -0.33419 0)
(0.981318 -0.361045 0)
(0.939596 -0.386924 0)
(0.892417 -0.400682 0)
(0.851052 -0.39699 0)
(0.825781 -0.38959 0)
(0.803464 -0.381868 0)
(0.775953 -0.369146 0)
(1.01583 -0.001581 0)
(1.01758 -0.00524365 0)
(1.02063 -0.00848741 0)
(1.02492 -0.0123399 0)
(1.03047 -0.0163615 0)
(1.03708 -0.0211395 0)
(1.04471 -0.0267195 0)
(1.05316 -0.033437 0)
(1.06227 -0.0415459 0)
(1.07177 -0.0513646 0)
(1.08138 -0.0632015 0)
(1.09074 -0.0773765 0)
(1.09946 -0.0941969 0)
(1.10695 -0.113876 0)
(1.11263 -0.136613 0)
(1.11578 -0.162508 0)
(1.11557 -0.191377 0)
(1.11118 -0.2229 0)
(1.10175 -0.256562 0)
(1.08655 -0.291377 0)
(1.06532 -0.326028 0)
(1.03826 -0.358563 0)
(1.00643 -0.384702 0)
(0.971933 -0.399143 0)
(0.937858 -0.406653 0)
(0.901292 -0.421855 0)
(0.85044 -0.434248 0)
(0.795283 -0.431203 0)
(0.756223 -0.425159 0)
(1.0161 -0.00156782 0)
(1.01788 -0.00518288 0)
(1.02097 -0.00837849 0)
(1.02532 -0.0121601 0)
(1.03098 -0.0160881 0)
(1.03773 -0.0207505 0)
(1.04557 -0.0261838 0)
(1.05431 -0.0327323 0)
(1.0638 -0.040652 0)
(1.07382 -0.0502749 0)
(1.08412 -0.0619314 0)
(1.09436 -0.0759679 0)
(1.10421 -0.092745 0)
(1.11313 -0.112545 0)
(1.12054 -0.135643 0)
(1.12579 -0.162294 0)
(1.12803 -0.192474 0)
(1.12636 -0.226009 0)
(1.11977 -0.262574 0)
(1.10737 -0.301408 0)
(1.08881 -0.34138 0)
(1.06341 -0.380931 0)
(1.02915 -0.419931 0)
(0.984553 -0.461909 0)
(0.929324 -0.50323 0)
(0.865077 -0.522163 0)
(0.809789 -0.516327 0)
(0.773262 -0.510817 0)
(0.733594 -0.499414 0)
(1.01633 -0.00155532 0)
(1.01814 -0.00512611 0)
(1.02126 -0.00827709 0)
(1.02567 -0.0119924 0)
(1.03143 -0.0158327 0)
(1.0383 -0.0203856 0)
(1.04632 -0.0256781 0)
(1.05531 -0.0320613 0)
(1.06514 -0.0397909 0)
(1.07563 -0.0492083 0)
(1.08654 -0.0606599 0)
(1.09759 -0.0745122 0)
(1.10848 -0.0911637 0)
(1.11874 -0.110962 0)
(1.12778 -0.134246 0)
(1.13504 -0.16139 0)
(1.13971 -0.192534 0)
(1.14085 -0.227645 0)
(1.13738 -0.266597 0)
(1.12826 -0.308853 0)
(1.11301 -0.353717 0)
(1.09064 -0.400233 0)
(1.05943 -0.445777 0)
(1.02068 -0.484028 0)
(0.977094 -0.507321 0)
(0.930783 -0.526559 0)
(0.874352 -0.561095 0)
(0.79417 -0.579126 0)
(0.715734 -0.571875 0)
(1.01654 -0.00154363 0)
(1.01837 -0.00507362 0)
(1.02152 -0.00818356 0)
(1.02598 -0.0118372 0)
(1.03181 -0.0155964 0)
(1.03879 -0.0200467 0)
(1.04697 -0.025206 0)
(1.05618 -0.0314305 0)
(1.06631 -0.0389736 0)
(1.07721 -0.0481828 0)
(1.08867 -0.0594149 0)
(1.10045 -0.0730522 0)
(1.11228 -0.0895193 0)
(1.12377 -0.109221 0)
(1.13434 -0.132548 0)
(1.14348 -0.159964 0)
(1.15052 -0.19176 0)
(1.15445 -0.228031 0)
(1.1542 -0.268846 0)
(1.14868 -0.313919 0)
(1.13729 -0.362795 0)
(1.11923 -0.414918 0)
(1.0917 -0.468807 0)
(1.05091 -0.525271 0)
(0.996448 -0.592147 0)
(0.92548 -0.66189 0)
(0.833761 -0.690817 0)
(0.750631 -0.683828 0)
(0.691139 -0.681074 0)
(1.01673 -0.00153281 0)
(1.01857 -0.0050255 0)
(1.02175 -0.00809798 0)
(1.02625 -0.0116949 0)
(1.03215 -0.0153795 0)
(1.03922 -0.0197348 0)
(1.04753 -0.0247696 0)
(1.05693 -0.030844 0)
(1.06733 -0.0382075 0)
(1.07859 -0.0472114 0)
(1.09053 -0.0582185 0)
(1.10297 -0.0716239 0)
(1.11564 -0.087869 0)
(1.12823 -0.107403 0)
(1.14021 -0.130661 0)
(1.15112 -0.158172 0)
(1.16038 -0.190358 0)
(1.16701 -0.227429 0)
(1.16993 -0.26961 0)
(1.16818 -0.316884 0)
(1.16101 -0.368962 0)
(1.14752 -0.425783 0)
(1.12547 -0.487466 0)
(1.0923 -0.551742 0)
(1.04861 -0.608886 0)
(0.994716 -0.646142 0)
(0.932063 -0.691026 0)
(0.841631 -0.767427 0)
(0.703889 -0.787082 0)
(1.01689 -0.0015229 0)
(1.01874 -0.00498175 0)
(1.02195 -0.00802021 0)
(1.02649 -0.0115655 0)
(1.03244 -0.0151821 0)
(1.03959 -0.0194499 0)
(1.04802 -0.0243696 0)
(1.05758 -0.0303037 0)
(1.06822 -0.037497 0)
(1.07979 -0.046303 0)
(1.09216 -0.0570872 0)
(1.10517 -0.0702536 0)
(1.11859 -0.0862547 0)
(1.13215 -0.10557 0)
(1.14543 -0.128676 0)
(1.15797 -0.156146 0)
(1.16928 -0.188507 0)
(1.17846 -0.226081 0)
(1.1844 -0.269185 0)
(1.18637 -0.318046 0)
(1.18368 -0.372639 0)
(1.17508 -0.432907 0)
(1.15949 -0.499617 0)
(1.13427 -0.573189 0)
(1.09002 -0.654545 0)
(1.02653 -0.761437 0)
(0.944509 -0.892516 0)
(0.801738 -0.953196 0)
(0.633234 -0.939964 0)
(1.01704 -0.00151389 0)
(1.0189 -0.00494224 0)
(1.02212 -0.00795001 0)
(1.02669 -0.0114484 0)
(1.0327 -0.0150036 0)
(1.03991 -0.0191917 0)
(1.04845 -0.0240058 0)
(1.05815 -0.0298104 0)
(1.06898 -0.0368446 0)
(1.08083 -0.0454634 0)
(1.09357 -0.0560321 0)
(1.10708 -0.0689608 0)
(1.12117 -0.0847086 0)
(1.1356 -0.103774 0)
(1.15003 -0.12667 0)
(1.16404 -0.154002 0)
(1.17722 -0.186374 0)
(1.18877 -0.224214 0)
(1.19755 -0.267895 0)
(1.20299 -0.317782 0)
(1.20479 -0.374188 0)
(1.20141 -0.437038 0)
(1.19155 -0.507156 0)
(1.17532 -0.588618 0)
(1.14839 -0.681719 0)
(1.10578 -0.767138 0)
(1.04191 -0.825363 0)
(0.958952 -0.938303 0)
(0.783469 -1.11496 0)
(1.01716 -0.00150578 0)
(1.01903 -0.0049068 0)
(1.02227 -0.00788702 0)
(1.02687 -0.0113434 0)
(1.03292 -0.0148431 0)
(1.04019 -0.0189591 0)
(1.04881 -0.0236774 0)
(1.05864 -0.0293635 0)
(1.06965 -0.0362509 0)
(1.08173 -0.0446949 0)
(1.0948 -0.0550594 0)
(1.10874 -0.0677574 0)
(1.12341 -0.0832515 0)
(1.13861 -0.102053 0)
(1.15405 -0.124701 0)
(1.16939 -0.151827 0)
(1.18425 -0.184086 0)
(1.19795 -0.222001 0)
(1.20937 -0.265997 0)
(1.21797 -0.316465 0)
(1.22392 -0.373977 0)
(1.22589 -0.438733 0)
(1.22192 -0.51102 0)
(1.2149 -0.595278 0)
(1.20391 -0.695584 0)
(1.16492 -0.804982 0)
(1.09853 -0.967067 0)
(1.02647 -1.25275 0)
(0.726593 -1.35499 0)
(0.997802 -1.97083e-05 0)
(0.997969 0.000146753 0)
(0.998027 0.000317133 0)
(0.997977 0.000491444 0)
(0.997812 0.000669143 0)
(0.997514 0.000849062 0)
(0.997053 0.00102887 0)
(0.996393 0.00120471 0)
(0.995493 0.001371 0)
(0.994318 0.0015202 0)
(0.992843 0.00164302 0)
(0.99107 0.00172896 0)
(0.989037 0.00176734 0)
(0.986827 0.00174895 0)
(0.984574 0.00166784 0)
(0.982452 0.00152327 0)
(0.98066 0.00132092 0)
(0.979392 0.00107342 0)
(0.978805 0.000799402 0)
(0.997871 -0.00747952 0)
(0.997636 -0.00748434 0)
(0.997493 -0.00749765 0)
(0.997448 -0.00752043 0)
(0.997528 -0.00755072 0)
(0.997774 -0.00758584 0)
(0.998247 -0.00762158 0)
(0.99902 -0.00765152 0)
(1.00018 -0.00766642 0)
(1.0018 -0.00765392 0)
(1.00395 -0.00759849 0)
(1.00664 -0.00748217 0)
(1.00982 -0.00728618 0)
(1.01334 -0.00699357 0)
(1.01699 -0.00659267 0)
(1.02046 -0.00608062 0)
(1.02339 -0.00546621 0)
(1.02544 -0.00477087 0)
(1.02634 -0.0040271 0)
(0.994878 -0.0105205 0)
(0.995238 -0.0101332 0)
(0.99549 -0.00973612 0)
(0.995625 -0.00932909 0)
(0.995617 -0.00891372 0)
(0.995422 -0.00849079 0)
(0.994977 -0.00806141 0)
(0.9942 -0.00762783 0)
(0.992996 -0.00719384 0)
(0.991267 -0.0067652 0)
(0.988935 -0.0063498 0)
(0.985966 -0.00595725 0)
(0.982398 -0.00559776 0)
(0.978375 -0.00528015 0)
(0.974153 -0.00500954 0)
(0.970095 -0.00478496 0)
(0.966626 -0.0045981 0)
(0.964167 -0.00443355 0)
(0.963048 -0.00427113 0)
(0.990529 -0.0150411 0)
(0.990066 -0.0147722 0)
(0.989704 -0.0144891 0)
(0.98944 -0.0141952 0)
(0.989291 -0.0138904 0)
(0.989296 -0.013575 0)
(0.98952 -0.0132494 0)
(0.990048 -0.0129134 0)
(0.990985 -0.0125659 0)
(0.992436 -0.0122046 0)
(0.994489 -0.0118257 0)
(0.997177 -0.0114248 0)
(1.00045 -0.0109972 0)
(1.00415 -0.01054 0)
(1.00798 -0.0100538 0)
(1.01157 -0.0095443 0)
(1.01449 -0.00902272 0)
(1.01633 -0.00850424 0)
(1.01682 -0.00800464 0)
(0.985221 -0.0254487 0)
(0.985299 -0.0247987 0)
(0.985297 -0.0241424 0)
(0.985213 -0.0234805 0)
(0.985025 -0.022816 0)
(0.984692 -0.0221509 0)
(0.984152 -0.0214868 0)
(0.983321 -0.0208253 0)
(0.982096 -0.0201684 0)
(0.980373 -0.0195181 0)
(0.978059 -0.0188762 0)
(0.975115 -0.0182442 0)
(0.971585 -0.0176221 0)
(0.967634 -0.0170075 0)
(0.963557 -0.0163941 0)
(0.959763 -0.0157718 0)
(0.956706 -0.0151271 0)
(0.954798 -0.0144462 0)
(0.954302 -0.0137189 0)
(0.979202 -0.027762 0)
(0.978489 -0.0273054 0)
(0.977896 -0.0268144 0)
(0.977416 -0.026293 0)
(0.977061 -0.0257398 0)
(0.976865 -0.025155 0)
(0.976884 -0.0245395 0)
(0.977195 -0.0238944 0)
(0.977893 -0.0232215 0)
(0.97907 -0.0225228 0)
(0.980798 -0.0218009 0)
(0.983092 -0.021059 0)
(0.985878 -0.0203014 0)
(0.988963 -0.0195345 0)
(0.99204 -0.0187674 0)
(0.994718 -0.018012 0)
(0.996597 -0.0172816 0)
(0.997357 -0.0165883 0)
(0.996843 -0.0159386 0)
(0.972052 -0.0411129 0)
(0.97162 -0.040039 0)
(0.971127 -0.0389569 0)
(0.970579 -0.0378666 0)
(0.969965 -0.036772 0)
(0.969256 -0.0356754 0)
(0.968405 -0.0345785 0)
(0.967343 -0.0334833 0)
(0.965989 -0.0323916 0)
(0.964253 -0.0313052 0)
(0.962061 -0.0302261 0)
(0.959388 -0.0291567 0)
(0.956294 -0.0280994 0)
(0.952952 -0.0270561 0)
(0.949656 -0.0260272 0)
(0.94679 -0.0250096 0)
(0.944749 -0.0239971 0)
(0.943841 -0.0229814 0)
(0.944186 -0.0219548 0)
(0.963384 -0.0451429 0)
(0.962334 -0.0444614 0)
(0.961406 -0.043732 0)
(0.960593 -0.0429612 0)
(0.95991 -0.0421494 0)
(0.959389 -0.0412992 0)
(0.959078 -0.0404144 0)
(0.959047 -0.0394998 0)
(0.959379 -0.0385606 0)
(0.960157 -0.0376018 0)
(0.961448 -0.0366262 0)
(0.963265 -0.0356338 0)
(0.965537 -0.03462 0)
(0.968078 -0.0335755 0)
(0.970588 -0.0324881 0)
(0.972687 -0.0313461 0)
(0.973992 -0.0301419 0)
(0.974218 -0.0288748 0)
(0.973267 -0.0275505 0)
(0.955559 -0.0601556 0)
(0.954537 -0.0586309 0)
(0.953497 -0.0570871 0)
(0.952457 -0.0555243 0)
(0.95142 -0.0539459 0)
(0.950375 -0.0523529 0)
(0.949293 -0.0507444 0)
(0.948124 -0.0491184 0)
(0.946793 -0.0474719 0)
(0.945209 -0.0458017 0)
(0.943277 -0.0441062 0)
(0.940926 -0.0423877 0)
(0.93815 -0.0406547 0)
(0.935049 -0.0389232 0)
(0.931855 -0.0372145 0)
(0.928916 -0.0355501 0)
(0.926633 -0.0339448 0)
(0.925349 -0.0324004 0)
(0.925232 -0.0309034 0)
(0.944737 -0.068111 0)
(0.943177 -0.0670736 0)
(0.941738 -0.0659649 0)
(0.940413 -0.0647927 0)
(0.939206 -0.0635568 0)
(0.938138 -0.0622591 0)
(0.93724 -0.0609031 0)
(0.936557 -0.0594934 0)
(0.936155 -0.0580353 0)
(0.936112 -0.0565338 0)
(0.936508 -0.0549917 0)
(0.937404 -0.0534064 0)
(0.938801 -0.0517657 0)
(0.940599 -0.0500463 0)
(0.942569 -0.0482142 0)
(0.944355 -0.0462321 0)
(0.945532 -0.0440717 0)
(0.945717 -0.0417283 0)
(0.944696 -0.0392284 0)
(0.935469 -0.0843798 0)
(0.933694 -0.0822849 0)
(0.931933 -0.0801376 0)
(0.930207 -0.0779382 0)
(0.928528 -0.0756878 0)
(0.926894 -0.0733847 0)
(0.92529 -0.0710259 0)
(0.923685 -0.0686072 0)
(0.922017 -0.0661239 0)
(0.920196 -0.0635714 0)
(0.918105 -0.0609474 0)
(0.915615 -0.0582561 0)
(0.912624 -0.0555129 0)
(0.909113 -0.0527498 0)
(0.905214 -0.0500159 0)
(0.901248 -0.0473717 0)
(0.897708 -0.0448726 0)
(0.895151 -0.0425474 0)
(0.894008 -0.0403797 0)
(0.923016 -0.0962781 0)
(0.920559 -0.0946426 0)
(0.91822 -0.0928852 0)
(0.91599 -0.0910166 0)
(0.913868 -0.0890445 0)
(0.911866 -0.0869771 0)
(0.910003 -0.0848244 0)
(0.908309 -0.0825977 0)
(0.906835 -0.0803095 0)
(0.905652 -0.0779728 0)
(0.90486 -0.0755998 0)
(0.904576 -0.0731976 0)
(0.90491 -0.0707617 0)
(0.905909 -0.0682678 0)
(0.907491 -0.065665 0)
(0.909375 -0.0628773 0)
(0.911066 -0.0598189 0)
(0.911942 -0.056428 0)
(0.911449 -0.0527045 0)
(0.911466 -0.114815 0)
(0.908549 -0.112011 0)
(0.905691 -0.109102 0)
(0.90292 -0.106097 0)
(0.900256 -0.102994 0)
(0.897706 -0.0997887 0)
(0.895271 -0.0964767 0)
(0.892936 -0.0930532 0)
(0.890663 -0.0895127 0)
(0.888384 -0.0858485 0)
(0.885981 -0.082053 0)
(0.883292 -0.0781215 0)
(0.880116 -0.0740584 0)
(0.876264 -0.0698889 0)
(0.871651 -0.0656716 0)
(0.866419 -0.0615064 0)
(0.861044 -0.0575238 0)
(0.856337 -0.053849 0)
(0.853243 -0.0505448 0)
(0.89756 -0.131047 0)
(0.893717 -0.128432 0)
(0.89003 -0.125604 0)
(0.886495 -0.122582 0)
(0.883108 -0.119388 0)
(0.879881 -0.116047 0)
(0.876825 -0.112583 0)
(0.873956 -0.109022 0)
(0.8713 -0.105388 0)
(0.868901 -0.101709 0)
(0.866834 -0.0980134 0)
(0.865221 -0.094332 0)
(0.86424 -0.0906917 0)
(0.864105 -0.0871044 0)
(0.86499 -0.0835479 0)
(0.866898 -0.0799438 0)
(0.869489 -0.0761467 0)
(0.871982 -0.0719705 0)
(0.87328 -0.0672669 0)
(0.882905 -0.153206 0)
(0.878244 -0.149315 0)
(0.873745 -0.145226 0)
(0.869423 -0.140952 0)
(0.865324 -0.1365 0)
(0.861463 -0.131864 0)
(0.857852 -0.12705 0)
(0.854494 -0.122062 0)
(0.851374 -0.116904 0)
(0.84846 -0.111582 0)
(0.845676 -0.106096 0)
(0.842894 -0.100442 0)
(0.839904 -0.0946138 0)
(0.836411 -0.0886089 0)
(0.83207 -0.0824509 0)
(0.826615 -0.0762211 0)
(0.820103 -0.0700912 0)
(0.813208 -0.064318 0)
(0.807336 -0.0591721 0)
(0.866685 -0.174789 0)
(0.860683 -0.170626 0)
(0.854923 -0.166027 0)
(0.849476 -0.161084 0)
(0.844327 -0.15582 0)
(0.8395 -0.150302 0)
(0.835017 -0.144577 0)
(0.830887 -0.138698 0)
(0.827125 -0.132718 0)
(0.823742 -0.126694 0)
(0.820762 -0.120684 0)
(0.818243 -0.11475 0)
(0.81631 -0.108965 0)
(0.815192 -0.1034 0)
(0.815241 -0.0981197 0)
(0.816855 -0.0931426 0)
(0.820241 -0.0883792 0)
(0.825005 -0.0835811 0)
(0.829794 -0.0783527 0)
(0.848199 -0.202515 0)
(0.840647 -0.196694 0)
(0.833512 -0.190522 0)
(0.826736 -0.183916 0)
(0.820423 -0.176955 0)
(0.814622 -0.169647 0)
(0.809354 -0.162032 0)
(0.804652 -0.154158 0)
(0.800518 -0.146065 0)
(0.796942 -0.137801 0)
(0.793888 -0.129406 0)
(0.791284 -0.120911 0)
(0.788992 -0.112339 0)
(0.786773 -0.103693 0)
(0.784222 -0.0949689 0)
(0.780755 -0.0861771 0)
(0.77573 -0.0774172 0)
(0.7689 -0.0689491 0)
(0.761167 -0.0612668 0)
(0.828131 -0.231495 0)
(0.81849 -0.224962 0)
(0.809245 -0.217437 0)
(0.800641 -0.209254 0)
(0.792717 -0.200429 0)
(0.785498 -0.191078 0)
(0.779072 -0.181321 0)
(0.773447 -0.171252 0)
(0.768655 -0.161001 0)
(0.76469 -0.150686 0)
(0.761548 -0.14044 0)
(0.759223 -0.1304 0)
(0.757736 -0.120713 0)
(0.757181 -0.111532 0)
(0.757802 -0.103023 0)
(0.760071 -0.0953503 0)
(0.764692 -0.0886064 0)
(0.772215 -0.0827396 0)
(0.782193 -0.0772696 0)
(0.805228 -0.268002 0)
(0.79266 -0.259019 0)
(0.780894 -0.249281 0)
(0.769953 -0.238579 0)
(0.759911 -0.227022 0)
(0.750987 -0.214761 0)
(0.743191 -0.201871 0)
(0.736637 -0.188532 0)
(0.731336 -0.174873 0)
(0.727315 -0.161052 0)
(0.724546 -0.147208 0)
(0.722978 -0.133471 0)
(0.722507 -0.119947 0)
(0.722954 -0.106716 0)
(0.724001 -0.0938221 0)
(0.725074 -0.0812568 0)
(0.725177 -0.0690754 0)
(0.723012 -0.0573561 0)
(0.717377 -0.0465797 0)
(0.780657 -0.307888 0)
(0.76431 -0.297717 0)
(0.748989 -0.285668 0)
(0.734701 -0.272034 0)
(0.721935 -0.257183 0)
(0.71062 -0.241146 0)
(0.701022 -0.224268 0)
(0.69316 -0.206728 0)
(0.687128 -0.188796 0)
(0.682913 -0.170727 0)
(0.680513 -0.152792 0)
(0.67987 -0.135278 0)
(0.680926 -0.118485 0)
(0.683638 -0.10274 0)
(0.688045 -0.0883831 0)
(0.694382 -0.0758256 0)
(0.70334 -0.0653221 0)
(0.715855 -0.0572951 0)
(0.733694 -0.0516558 0)
(0.752798 -0.357457 0)
(0.731838 -0.344282 0)
(0.711611 -0.328638 0)
(0.693396 -0.311302 0)
(0.676859 -0.291874 0)
(0.662624 -0.271028 0)
(0.650688 -0.248903 0)
(0.641284 -0.225894 0)
(0.634419 -0.202339 0)
(0.630178 -0.178576 0)
(0.628519 -0.15495 0)
(0.629415 -0.131791 0)
(0.632767 -0.109405 0)
(0.638419 -0.0880543 0)
(0.646084 -0.0679618 0)
(0.655265 -0.0491053 0)
(0.664729 -0.0317351 0)
(0.673311 -0.0156182 0)
(0.676597 -0.000885026 0)
(0.725076 -0.413807 0)
(0.696169 -0.397617 0)
(0.67031 -0.378953 0)
(0.646185 -0.356434 0)
(0.625141 -0.331644 0)
(0.607062 -0.30461 0)
(0.592367 -0.275937 0)
(0.58103 -0.246141 0)
(0.573246 -0.215636 0)
(0.56893 -0.184902 0)
(0.568131 -0.154376 0)
(0.570772 -0.124518 0)
(0.576785 -0.0958242 0)
(0.586057 -0.068864 0)
(0.598486 -0.0442102 0)
(0.613929 -0.0229359 0)
(0.633385 -0.00537457 0)
(0.656242 0.00696143 0)
(0.687666 0.0129128 0)
(0.691557 -0.480943 0)
(0.65611 -0.462543 0)
(0.621664 -0.437426 0)
(0.591163 -0.408955 0)
(0.56449 -0.37689 0)
(0.542261 -0.342051 0)
(0.524363 -0.305439 0)
(0.511144 -0.267426 0)