/*--------------------------------*- C++ -*----------------------------------*\
  =========                 |
  \\      /  F ield         | OpenFOAM: The Open Source CFD Toolbox
   \\    /   O peration     | Website:  https://openfoam.org
    \\  /    A nd           | Version:  10
     \\/     M anipulation  |
\*---------------------------------------------------------------------------*/
FoamFile
{
    format      ascii;
    class       volVectorField;
    location    "0";
    object      U;
}
// * * * * * * * * * * * * * * * * * * * * * * * * * * * * * * * * * * * * * //

dimensions      [0 1 -1 0 0 0 0];

internalField   nonuniform List<vector> 
18483
(
(1 -0.000181113 0)
(1 -0.000657984 0)
(1 -0.0010741 0)
(1 -0.00154593 0)
(1 -0.00202821 0)
(1.00001 -0.00252693 0)
(1.00001 -0.00302176 0)
(1.00001 -0.00349579 0)
(1.00001 -0.00393216 0)
(1.00001 -0.00431781 0)
(1.00002 -0.00464659 0)
(1.00004 -0.00492451 0)
(1.00007 -0.00517003 0)
(1.00012 -0.00543393 0)
(1.0002 -0.00576821 0)
(1.00028 -0.00619494 0)
(1.0003 -0.0066576 0)
(0.999925 -0.00705535 0)
(0.998262 -0.0073243 0)
(0.994361 -0.00744326 0)
(0.989035 -0.00750018 0)
(0.985473 -0.00762359 0)
(0.985878 -0.00774262 0)
(0.989008 -0.00772713 0)
(0.992507 -0.00759462 0)
(0.995215 -0.00741726 0)
(0.997017 -0.0072411 0)
(0.998142 -0.007087 0)
(0.998823 -0.00695982 0)
(1.00056 -0.000524235 0)
(1.0006 -0.00188202 0)
(1.0007 -0.00305253 0)
(1.00081 -0.00437445 0)
(1.00093 -0.00570613 0)
(1.00104 -0.0070722 0)
(1.00113 -0.00841516 0)
(1.00118 -0.00968985 0)
(1.00119 -0.0108466 0)
(1.00114 -0.0118476 0)
(1.00105 -0.0126667 0)
(1.00093 -0.0133028 0)
(1.00081 -0.0137441 0)
(1.00073 -0.0138938 0)
(1.00067 -0.0136292 0)
(1.00057 -0.0128793 0)
(1.00041 -0.0117421 0)
(1.00047 -0.0104645 0)
(1.0018 -0.00930499 0)
(1.00575 -0.00854163 0)
(1.01174 -0.00826952 0)
(1.01587 -0.00821078 0)
(1.01493 -0.00818197 0)
(1.01046 -0.00824236 0)
(1.00576 -0.00835511 0)
(1.00236 -0.00843354 0)
(1.00027 -0.00844898 0)
(0.999068 -0.00840534 0)
(0.998388 -0.0083194 0)
(1.00162 -0.000840725 0)
(1.00174 -0.00298584 0)
(1.00197 -0.00480953 0)
(1.00224 -0.00685187 0)
(1.00254 -0.00887431 0)
(1.0028 -0.0109313 0)
(1.003 -0.0129363 0)
(1.00309 -0.0148313 0)
(1.00304 -0.0165474 0)
(1.00286 -0.0180356 0)
(1.00255 -0.0192571 0)
(1.00214 -0.0201818 0)
(1.00167 -0.0208158 0)
(1.00114 -0.0212187 0)
(1.00046 -0.0215965 0)
(0.999571 -0.0222318 0)
(0.998492 -0.023161 0)
(0.997156 -0.0241193 0)
(0.99506 -0.0247569 0)
(0.991408 -0.0246997 0)
(0.98654 -0.0237411 0)
(0.983166 -0.0222724 0)
(0.983782 -0.0208994 0)
(0.987186 -0.0197452 0)
(0.990568 -0.0187586 0)
(0.992741 -0.0179546 0)
(0.993862 -0.0173128 0)
(0.994344 -0.0168004 0)
(0.994488 -0.0163893 0)
(1.0029 -0.00111541 0)
(1.0031 -0.00392943 0)
(1.00348 -0.00629761 0)
(1.00393 -0.00893305 0)
(1.00441 -0.0115118 0)
(1.00484 -0.0141233 0)
(1.00515 -0.0166607 0)
(1.00528 -0.0190607 0)
(1.0052 -0.0212363 0)
(1.00489 -0.0231161 0)
(1.00438 -0.024645 0)
(1.0037 -0.0257887 0)
(1.0029 -0.0265846 0)
(1.00201 -0.0271128 0)
(1.0011 -0.0273818 0)
(1.00026 -0.0271479 0)
(0.999483 -0.0261942 0)
(0.99873 -0.0247362 0)
(0.998348 -0.0231661 0)
(0.999429 -0.0218592 0)
(1.00255 -0.021158 0)
(1.00551 -0.0210166 0)
(1.00511 -0.0209262 0)
(1.00161 -0.0207038 0)
(0.997724 -0.0204722 0)
(0.994946 -0.0202236 0)
(0.993237 -0.0199483 0)
(0.99221 -0.0196592 0)
(0.991572 -0.0193669 0)
(1.00423 -0.00134053 0)
(1.00453 -0.00469537 0)
(1.00506 -0.00750438 0)
(1.00569 -0.0106235 0)
(1.00637 -0.0136612 0)
(1.00697 -0.0167431 0)
(1.00742 -0.0197487 0)
(1.00762 -0.0226133 0)
(1.00752 -0.0252334 0)
(1.00707 -0.0275205 0)
(1.0063 -0.0294104 0)
(1.00523 -0.0308712 0)
(1.00393 -0.0319074 0)
(1.00248 -0.0325098 0)
(1.00098 -0.0327072 0)
(0.999407 -0.0327642 0)
(0.997594 -0.0330555 0)
(0.995363 -0.0336761 0)
(0.992448 -0.0343254 0)
(0.98849 -0.0345346 0)
(0.983642 -0.0339407 0)
(0.979563 -0.0324818 0)
(0.97861 -0.0307269 0)
(0.980643 -0.0291844 0)
(0.983214 -0.0277816 0)
(0.984865 -0.0265171 0)
(0.98562 -0.0254308 0)
(0.985843 -0.0245091 0)
(0.985802 -0.0237364 0)
(1.00558 -0.00152061 0)
(1.00597 -0.00530501 0)
(1.00664 -0.00847267 0)
(1.00746 -0.011996 0)
(1.00834 -0.0154335 0)
(1.00915 -0.0189485 0)
(1.00977 -0.0224133 0)
(1.01008 -0.0257695 0)
(1.00998 -0.0289075 0)
(1.00942 -0.0317328 0)
(1.00841 -0.0341631 0)
(1.00698 -0.036133 0)
(1.00525 -0.0375984 0)
(1.00333 -0.0385366 0)
(1.0013 -0.0389686 0)
(0.999264 -0.0389109 0)
(0.997334 -0.0382034 0)
(0.995511 -0.036727 0)
(0.993853 -0.0348165 0)
(0.99289 -0.0330664 0)
(0.993359 -0.0319105 0)
(0.994529 -0.031525 0)
(0.993959 -0.031484 0)
(0.990791 -0.0311935 0)
(0.986942 -0.0307571 0)
(0.984063 -0.0303134 0)
(0.982246 -0.0298313 0)
(0.981105 -0.0293312 0)
(0.980348 -0.0288304 0)
(1.00693 -0.00166373 0)
(1.00741 -0.00578962 0)
(1.00823 -0.00925489 0)
(1.00925 -0.0131261 0)
(1.01036 -0.0169277 0)
(1.01141 -0.0208613 0)
(1.01224 -0.0247976 0)
(1.01271 -0.0286905 0)
(1.01271 -0.0324255 0)
(1.01215 -0.035894 0)
(1.01103 -0.0389758 0)
(1.00939 -0.0415538 0)
(1.00732 -0.0435426 0)
(1.00491 -0.0448865 0)
(1.00226 -0.0455341 0)
(0.999425 -0.0455371 0)
(0.996446 -0.0452519 0)
(0.993283 -0.0451172 0)
(0.989923 -0.0452574 0)
(0.986147 -0.0454013 0)
(0.981564 -0.0450755 0)
(0.976592 -0.0439317 0)
(0.97315 -0.0421789 0)
(0.972518 -0.040465 0)
(0.973379 -0.0388591 0)
(0.973991 -0.0372344 0)
(0.974019 -0.0357175 0)
(0.973724 -0.0343593 0)
(0.973303 -0.0331694 0)
(1.00826 -0.001777 0)
(1.00885 -0.00617394 0)
(1.00983 -0.00988816 0)
(1.01106 -0.0140621 0)
(1.01242 -0.0181982 0)
(1.01374 -0.0225358 0)
(1.01484 -0.0269476 0)
(1.01556 -0.0314025 0)
(1.01575 -0.0357836 0)
(1.01529 -0.0399727 0)
(1.01413 -0.0438323 0)
(1.01225 -0.047229 0)
(1.00971 -0.0500589 0)
(1.00658 -0.0522602 0)
(1.00299 -0.0538107 0)
(0.999061 -0.0547187 0)
(0.995076 -0.0549504 0)
(0.991439 -0.0542649 0)
(0.988437 -0.0525852 0)
(0.986293 -0.0504086 0)
(0.985362 -0.0483955 0)
(0.985429 -0.0470398 0)
(0.984667 -0.0463072 0)
(0.981338 -0.0455496 0)
(0.976496 -0.0446533 0)
(0.972328 -0.0438902 0)
(0.969432 -0.043169 0)
(0.967415 -0.0424329 0)
(0.965934 -0.0416963 0)
(1.00956 -0.0018664 0)
(1.01025 -0.0064767 0)
(1.01139 -0.0103979 0)
(1.01285 -0.0148339 0)
(1.01449 -0.0192719 0)
(1.0161 -0.023988 0)
(1.01753 -0.0288603 0)
(1.01855 -0.0338763 0)
(1.01901 -0.0389274 0)
(1.01873 -0.0439046 0)
(1.01763 -0.048673 0)
(1.01564 -0.0530866 0)
(1.01282 -0.0569953 0)
(1.00927 -0.0602601 0)
(1.00516 -0.0627549 0)
(1.00067 -0.0643256 0)
(0.996024 -0.0649803 0)
(0.991405 -0.0651595 0)
(0.986854 -0.0654113 0)
(0.982196 -0.0657286 0)
(0.976834 -0.0656296 0)
(0.970441 -0.0646472 0)
(0.964426 -0.0627916 0)
(0.961181 -0.0607749 0)
(0.960646 -0.0588948 0)
(0.960538 -0.0568732 0)
(0.959824 -0.054859 0)
(0.958803 -0.0530279 0)
(0.957747 -0.051403 0)
(1.01078 -0.00193737 0)
(1.01157 -0.00671366 0)
(1.01289 -0.0108044 0)
(1.01457 -0.0154645 0)
(1.01649 -0.0201673 0)
(1.01844 -0.0252244 0)
(1.02021 -0.0305218 0)
(1.0216 -0.0360687 0)
(1.02242 -0.0417727 0)
(1.02246 -0.0475409 0)
(1.02161 -0.0532392 0)
(1.01978 -0.0586997 0)
(1.01698 -0.0637287 0)
(1.01325 -0.0681368 0)
(1.00868 -0.0717879 0)
(1.00335 -0.0746258 0)
(0.997462 -0.0766757 0)
(0.99144 -0.0778357 0)
(0.985892 -0.0776888 0)
(0.981288 -0.0761199 0)
(0.978099 -0.0738192 0)
(0.976716 -0.0717491 0)
(0.97577 -0.0703507 0)
(0.972337 -0.0690629 0)
(0.966018 -0.0675716 0)
(0.959749 -0.0663372 0)
(0.955238 -0.0653167 0)
(0.952015 -0.0642868 0)
(0.949548 -0.0632576 0)
(1.01191 -0.00199464 0)
(1.01278 -0.00689809 0)
(1.01428 -0.0111248 0)
(1.0162 -0.0159735 0)
(1.01841 -0.0209007 0)
(1.02069 -0.026252 0)
(1.02285 -0.0319223 0)
(1.02466 -0.0379426 0)
(1.02591 -0.0442386 0)
(1.0264 -0.0507378 0)
(1.02595 -0.0573187 0)
(1.02443 -0.0638247 0)
(1.02175 -0.0700719 0)
(1.01787 -0.075871 0)
(1.01285 -0.0810542 0)
(1.00686 -0.0854406 0)
(1.00023 -0.0887734 0)
(0.993379 -0.090929 0)
(0.98654 -0.09229 0)
(0.979671 -0.0934798 0)
(0.972317 -0.094414 0)
(0.963611 -0.0943032 0)
(0.954191 -0.0927909 0)
(0.947528 -0.0906826 0)
(0.945526 -0.0886602 0)
(0.945173 -0.0863222 0)
(0.943825 -0.0837348 0)
(0.941893 -0.081337 0)
(0.939977 -0.0791901 0)
(1.01294 -0.00204214 0)
(1.0139 -0.0070411 0)
(1.01558 -0.0113736 0)
(1.01774 -0.0163788 0)
(1.02023 -0.0214894 0)
(1.02285 -0.0270843 0)
(1.02541 -0.0330666 0)
(1.02767 -0.0394876 0)
(1.02941 -0.0462936 0)
(1.03041 -0.053441 0)
(1.03046 -0.0608422 0)
(1.02937 -0.068377 0)
(1.027 -0.0758759 0)
(1.02329 -0.0831105 0)
(1.01828 -0.0898027 0)
(1.01211 -0.0956539 0)
(1.00492 -0.100426 0)
(0.996923 -0.104022 0)
(0.988582 -0.106223 0)
(0.98072 -0.106595 0)
(0.974288 -0.105209 0)
(0.970311 -0.103156 0)
(0.968441 -0.101626 0)
(0.964875 -0.100361 0)
(0.95662 -0.0985973 0)
(0.94696 -0.0969636 0)
(0.939929 -0.095758 0)
(0.935079 -0.0944734 0)
(0.931288 -0.0930993 0)
(1.0139 -0.00208254 0)
(1.01494 -0.00715199 0)
(1.01679 -0.0115641 0)
(1.01916 -0.0166967 0)
(1.02193 -0.0219522 0)
(1.0249 -0.027741 0)
(1.02785 -0.0339737 0)
(1.03056 -0.0407191 0)
(1.03282 -0.047945 0)
(1.03439 -0.055642 0)
(1.03504 -0.0637605 0)
(1.03458 -0.0722164 0)
(1.03282 -0.0808568 0)
(1.02962 -0.0894472 0)
(1.02489 -0.097704 0)
(1.01857 -0.105352 0)
(1.01072 -0.11212 0)
(1.00169 -0.11771 0)
(0.992055 -0.121992 0)
(0.982255 -0.125436 0)
(0.972061 -0.128538 0)
(0.960296 -0.130656 0)
(0.946494 -0.130569 0)
(0.934571 -0.128664 0)
(0.929627 -0.126495 0)
(0.929044 -0.123945 0)
(0.92703 -0.120623 0)
(0.923633 -0.117408 0)
(0.92038 -0.114561 0)
(1.01479 -0.00211721 0)
(1.0159 -0.00723839 0)
(1.01789 -0.0117087 0)
(1.02048 -0.0169424 0)
(1.02352 -0.022308 0)
(1.02681 -0.0282454 0)
(1.03014 -0.0346705 0)
(1.03331 -0.0416658 0)
(1.0361 -0.0492188 0)
(1.03828 -0.0573512 0)
(1.03962 -0.0660489 0)
(1.03992 -0.0752733 0)
(1.03893 -0.0849285 0)
(1.0364 -0.0948423 0)
(1.0321 -0.104762 0)
(1.02593 -0.114349 0)
(1.01796 -0.123149 0)
(1.0085 -0.130686 0)
(0.997984 -0.136561 0)
(0.987095 -0.14025 0)
(0.976848 -0.141254 0)
(0.96878 -0.140119 0)
(0.96424 -0.138742 0)
(0.960177 -0.138176 0)
(0.950121 -0.137056 0)
(0.935442 -0.135275 0)
(0.924015 -0.134051 0)
(0.91672 -0.132691 0)
(0.910957 -0.130884 0)
(1.01561 -0.00214648 0)
(1.0168 -0.00730623 0)
(1.01892 -0.0118188 0)
(1.02169 -0.0171288 0)
(1.02498 -0.0225743 0)
(1.02857 -0.0286209 0)
(1.03228 -0.0351866 0)
(1.03588 -0.0423641 0)
(1.03919 -0.0501562 0)
(1.04198 -0.0586111 0)
(1.04405 -0.067752 0)
(1.04515 -0.0775991 0)
(1.04502 -0.0881354 0)
(1.04335 -0.0992595 0)
(1.03986 -0.110735 0)
(1.03435 -0.122186 0)
(1.0267 -0.133156 0)
(1.01695 -0.143217 0)
(1.00543 -0.152018 0)
(0.992717 -0.159572 0)
(0.97906 -0.166465 0)
(0.963653 -0.172602 0)
(0.944981 -0.176127 0)
(0.925711 -0.175627 0)
(0.914391 -0.173171 0)
(0.912346 -0.170443 0)
(0.9098 -0.166343 0)
(0.904032 -0.161791 0)
(0.898551 -0.157891 0)
(1.01638 -0.00217042 0)
(1.01765 -0.00735976 0)
(1.01986 -0.0119033 0)
(1.0228 -0.0172677 0)
(1.02631 -0.0227671 0)
(1.0302 -0.0288901 0)
(1.03424 -0.0355527 0)
(1.03826 -0.0428547 0)
(1.04206 -0.0508102 0)
(1.04544 -0.0594888 0)
(1.04822 -0.0689488 0)
(1.05016 -0.0792662 0)
(1.05101 -0.0904964 0)
(1.05045 -0.102615 0)
(1.04811 -0.115464 0)
(1.04359 -0.128755 0)
(1.03657 -0.142087 0)
(1.02702 -0.154925 0)
(1.01528 -0.166531 0)
(1.00198 -0.175887 0)
(0.988032 -0.181728 0)
(0.974865 -0.183467 0)
(0.965128 -0.182892 0)
(0.959071 -0.183313 0)
(0.948202 -0.184321 0)
(0.927664 -0.183372 0)
(0.908412 -0.182164 0)
(0.896813 -0.181087 0)
(0.887975 -0.178775 0)
(1.0171 -0.00218941 0)
(1.01843 -0.00740157 0)
(1.02074 -0.0119683 0)
(1.02381 -0.0173685 0)
(1.02754 -0.0229008 0)
(1.03168 -0.0290735 0)
(1.03605 -0.0357975 0)
(1.04044 -0.0431773 0)
(1.0447 -0.0512341 0)
(1.04864 -0.0600511 0)
(1.05211 -0.069713 0)
(1.05491 -0.0803398 0)
(1.05682 -0.0920572 0)
(1.0575 -0.104946 0)
(1.05648 -0.118983 0)
(1.05325 -0.133998 0)
(1.04738 -0.149611 0)
(1.0387 -0.165235 0)
(1.02722 -0.180148 0)
(1.01301 -0.193746 0)
(0.996264 -0.206322 0)
(0.976776 -0.218667 0)
(0.95326 -0.229231 0)
(0.925728 -0.233781 0)
(0.903195 -0.232118 0)
(0.895198 -0.229032 0)
(0.892056 -0.224721 0)
(0.883041 -0.218338 0)
(0.873473 -0.212688 0)
(1.01776 -0.00220415 0)
(1.01915 -0.00743313 0)
(1.02154 -0.0120174 0)
(1.02475 -0.0174391 0)
(1.02867 -0.0229874 0)
(1.03304 -0.0291893 0)
(1.03769 -0.0359467 0)
(1.04244 -0.0433675 0)
(1.04712 -0.0514752 0)
(1.05158 -0.0603588 0)
(1.05571 -0.0701192 0)
(1.05935 -0.0809121 0)
(1.06231 -0.0929333 0)
(1.06424 -0.106377 0)
(1.06468 -0.121353 0)
(1.06308 -0.137821 0)
(1.05887 -0.155517 0)
(1.0516 -0.173963 0)
(1.04098 -0.192469 0)
(1.02703 -0.209896 0)
(1.01034 -0.224294 0)
(0.992266 -0.233217 0)
(0.975495 -0.236242 0)
(0.963853 -0.237705 0)
(0.952275 -0.242114 0)
(0.92751 -0.245142 0)
(0.896084 -0.244512 0)
(0.875461 -0.244009 0)
(0.861679 -0.241585 0)
(1.01835 -0.00221548 0)
(1.0198 -0.0074554 0)
(1.02228 -0.0120522 0)
(1.0256 -0.0174851 0)
(1.0297 -0.0230368 0)
(1.03428 -0.0292522 0)
(1.03919 -0.0360214 0)
(1.04426 -0.043455 0)
(1.04932 -0.0515753 0)
(1.05426 -0.0604697 0)
(1.05898 -0.070248 0)
(1.06339 -0.0810923 0)
(1.06733 -0.0932557 0)
(1.07054 -0.107028 0)
(1.07256 -0.122648 0)
(1.07283 -0.140243 0)
(1.07065 -0.159752 0)
(1.06534 -0.180827 0)
(1.05638 -0.202792 0)
(1.0434 -0.224573 0)
(1.02591 -0.245245 0)
(1.00346 -0.265619 0)
(0.975607 -0.286537 0)
(0.941113 -0.303225 0)
(0.903949 -0.308148 0)
(0.880746 -0.305006 0)
(0.873611 -0.301244 0)
(0.861605 -0.294041 0)
(0.844547 -0.28548 0)
(1.01888 -0.00222414 0)
(1.02038 -0.00746949 0)
(1.02295 -0.0120744 0)
(1.02638 -0.017511 0)
(1.03063 -0.0230572 0)
(1.03541 -0.0292744 0)
(1.04056 -0.0360393 0)
(1.04591 -0.0434656 0)
(1.05132 -0.051571 0)
(1.05667 -0.0604365 0)
(1.06193 -0.0701731 0)
(1.06703 -0.0809768 0)
(1.0719 -0.0931374 0)
(1.07636 -0.107023 0)
(1.08 -0.123001 0)
(1.08225 -0.141388 0)
(1.08237 -0.16234 0)
(1.07952 -0.185691 0)
(1.07293 -0.210957 0)
(1.06179 -0.237293 0)
(1.04549 -0.262964 0)
(1.02454 -0.28468 0)
(1.00139 -0.298316 0)
(0.98047 -0.304171 0)
(0.964689 -0.311406 0)
(0.939469 -0.323008 0)
(0.894864 -0.327821 0)
(0.855512 -0.327867 0)
(0.832297 -0.32677 0)
(1.01936 -0.00223067 0)
(1.0209 -0.00747678 0)
(1.02355 -0.0120858 0)
(1.02708 -0.0175207 0)
(1.03148 -0.0230551 0)
(1.03643 -0.0292657 0)
(1.0418 -0.0360152 0)
(1.04741 -0.0434203 0)
(1.05311 -0.0514922 0)
(1.05884 -0.0603012 0)
(1.06457 -0.0699521 0)
(1.0703 -0.0806425 0)
(1.07604 -0.0926814 0)
(1.08168 -0.106502 0)
(1.08688 -0.122588 0)
(1.09112 -0.141422 0)
(1.09371 -0.163386 0)
(1.09371 -0.188559 0)
(1.0901 -0.216693 0)
(1.08183 -0.247137 0)
(1.06762 -0.278416 0)
(1.04609 -0.309466 0)
(1.0164 -0.342347 0)
(0.977653 -0.377071 0)
(0.928418 -0.40183 0)
(0.880494 -0.406139 0)
(0.856252 -0.402319 0)
(0.841546 -0.397723 0)
(0.81416 -0.386439 0)
(1.01978 -0.00223548 0)
(1.02136 -0.00747873 0)
(1.02408 -0.0120886 0)
(1.02771 -0.0175175 0)
(1.03225 -0.0230362 0)
(1.03735 -0.0292345 0)
(1.04291 -0.0359609 0)
(1.04875 -0.0433357 0)
(1.05473 -0.0513618 0)
(1.06079 -0.0600959 0)
(1.06694 -0.0696303 0)
(1.07324 -0.0801559 0)
(1.07974 -0.0919877 0)
(1.08644 -0.105605 0)
(1.09309 -0.121583 0)
(1.09929 -0.140541 0)
(1.10439 -0.163078 0)
(1.10748 -0.189562 0)
(1.10734 -0.220006 0)
(1.10266 -0.254161 0)
(1.09174 -0.291109 0)
(1.07308 -0.328417 0)
(1.04788 -0.361189 0)
(1.01946 -0.382583 0)
(0.992732 -0.394309 0)
(0.966467 -0.414168 0)
(0.916644 -0.436826 0)
(0.848507 -0.44239 0)
(0.801751 -0.443099 0)
(1.02017 -0.00223888 0)
(1.02178 -0.00747663 0)
(1.02456 -0.0120848 0)
(1.02827 -0.0175048 0)
(1.03293 -0.0230053 0)
(1.03817 -0.0291874 0)
(1.04391 -0.0358858 0)
(1.04995 -0.0432249 0)
(1.05617 -0.0511972 0)
(1.06253 -0.0598455 0)
(1.06904 -0.0692453 0)
(1.07583 -0.0795741 0)
(1.083 -0.0911424 0)
(1.09064 -0.104451 0)
(1.09863 -0.120144 0)
(1.10668 -0.13895 0)
(1.11425 -0.161654 0)
(1.1205 -0.18892 0)
(1.12415 -0.221062 0)
(1.12367 -0.258162 0)
(1.11732 -0.299767 0)
(1.10269 -0.344043 0)
(1.07743 -0.390408 0)
(1.03995 -0.443433 0)
(0.987012 -0.501004 0)
(0.916539 -0.536926 0)
(0.853573 -0.539325 0)
(0.822482 -0.537253 0)
(0.787742 -0.530424 0)
(1.02051 -0.00224111 0)
(1.02216 -0.00747157 0)
(1.02499 -0.0120764 0)
(1.02878 -0.0174852 0)
(1.03354 -0.0229664 0)
(1.0389 -0.02913 0)
(1.0448 -0.0357975 0)
(1.05102 -0.0430979 0)
(1.05746 -0.0510124 0)
(1.06407 -0.0595703 0)
(1.0709 -0.0688273 0)
(1.0781 -0.0789425 0)
(1.08585 -0.0902116 0)
(1.09432 -0.103138 0)
(1.10352 -0.118411 0)
(1.11328 -0.136849 0)
(1.12317 -0.159377 0)
(1.13252 -0.186917 0)
(1.14012 -0.220124 0)
(1.14426 -0.259348 0)
(1.14306 -0.304816 0)
(1.13396 -0.35593 0)
(1.11457 -0.409862 0)
(1.08638 -0.459691 0)
(1.05225 -0.493663 0)
(1.01614 -0.517446 0)
(0.968588 -0.563284 0)
(0.878874 -0.601036 0)
(0.779958 -0.603507 0)
(1.02082 -0.00224242 0)
(1.02249 -0.0074644 0)
(1.02537 -0.0120648 0)
(1.02922 -0.017461 0)
(1.03409 -0.0229225 0)
(1.03955 -0.0290664 0)
(1.04559 -0.0357018 0)
(1.05196 -0.0429627 0)
(1.05859 -0.0508184 0)
(1.06542 -0.0592856 0)
(1.07253 -0.0683987 0)
(1.08008 -0.0782938 0)
(1.08833 -0.0892447 0)
(1.09752 -0.101745 0)
(1.1078 -0.116506 0)
(1.1191 -0.134414 0)
(1.13114 -0.156497 0)
(1.14339 -0.183865 0)
(1.1549 -0.217518 0)
(1.16388 -0.258122 0)
(1.16825 -0.306258 0)
(1.16608 -0.36223 0)
(1.15406 -0.424462 0)
(1.12676 -0.493048 0)
(1.08112 -0.577974 0)
(1.01076 -0.676176 0)
(0.906761 -0.731598 0)
(0.813261 -0.730426 0)
(0.759928 -0.732893 0)
(1.02109 -0.00224301 0)
(1.02279 -0.00745585 0)
(1.02571 -0.0120511 0)
(1.02962 -0.0174341 0)
(1.03457 -0.0228761 0)
(1.04013 -0.0289999 0)
(1.04629 -0.0356034 0)
(1.0528 -0.0428255 0)
(1.05959 -0.0506233 0)
(1.06662 -0.0590023 0)
(1.07395 -0.0679751 0)
(1.08181 -0.0776517 0)
(1.09048 -0.0882796 0)
(1.1003 -0.100333 0)
(1.11149 -0.114528 0)
(1.12415 -0.131793 0)
(1.13814 -0.153238 0)
(1.15308 -0.180091 0)
(1.16825 -0.213626 0)
(1.18212 -0.254889 0)
(1.19234 -0.304643 0)
(1.19717 -0.364006 0)
(1.19416 -0.43404 0)
(1.17805 -0.512337 0)
(1.14848 -0.588435 0)
(1.10833 -0.642956 0)
(1.05821 -0.694268 0)
(0.969278 -0.796796 0)
(0.803885 -0.847717 0)
(1.02133 -0.00224304 0)
(1.02305 -0.00744648 0)
(1.02601 -0.0120361 0)
(1.02997 -0.0174059 0)
(1.03499 -0.0228292 0)
(1.04064 -0.028933 0)
(1.0469 -0.0355056 0)
(1.05354 -0.0426906 0)
(1.06048 -0.0504329 0)
(1.06766 -0.0587282 0)
(1.07519 -0.0675673 0)
(1.0833 -0.0770334 0)
(1.09234 -0.0873449 0)
(1.10267 -0.0989498 0)
(1.11464 -0.112555 0)
(1.12848 -0.129109 0)
(1.14421 -0.149778 0)
(1.16159 -0.175879 0)
(1.18008 -0.208834 0)
(1.19858 -0.250059 0)
(1.21482 -0.300641 0)
(1.22668 -0.361795 0)
(1.2336 -0.435982 0)
(1.23076 -0.52354 0)
(1.20457 -0.623017 0)
(1.15223 -0.756865 0)
(1.07159 -0.939247 0)
(0.904832 -1.04689 0)
(0.708435 -1.03205 0)
(1.02155 -0.00224268 0)
(1.02328 -0.0074368 0)
(1.02628 -0.0120206 0)
(1.03029 -0.0173775 0)
(1.03537 -0.022783 0)
(1.04109 -0.0288677 0)
(1.04745 -0.035411 0)
(1.05419 -0.0425609 0)
(1.06125 -0.0502514 0)
(1.06858 -0.0584686 0)
(1.07628 -0.0671828 0)
(1.0846 -0.0764508 0)
(1.09392 -0.0864604 0)
(1.10468 -0.0976292 0)
(1.11733 -0.110645 0)
(1.13218 -0.126457 0)
(1.14941 -0.146268 0)
(1.16899 -0.171465 0)
(1.19046 -0.203537 0)
(1.21305 -0.24411 0)
(1.2352 -0.294754 0)
(1.25437 -0.356625 0)
(1.27004 -0.432426 0)
(1.28089 -0.527756 0)
(1.2766 -0.642018 0)
(1.25383 -0.757046 0)
(1.21322 -0.850283 0)
(1.14209 -0.98209 0)
(0.943706 -1.21319 0)
(1.02174 -0.00224203 0)
(1.02349 -0.00742714 0)
(1.02651 -0.0120051 0)
(1.03056 -0.0173497 0)
(1.0357 -0.0227386 0)
(1.04148 -0.0288051 0)
(1.04793 -0.0353212 0)
(1.05477 -0.0424386 0)
(1.06193 -0.0500811 0)
(1.06938 -0.0582268 0)
(1.07722 -0.0668263 0)
(1.08571 -0.0759113 0)
(1.09527 -0.0856385 0)
(1.1064 -0.0963925 0)
(1.11959 -0.108836 0)
(1.1353 -0.123908 0)
(1.15383 -0.142822 0)
(1.17532 -0.167017 0)
(1.19948 -0.198034 0)
(1.22563 -0.237519 0)
(1.25304 -0.287435 0)
(1.27958 -0.349308 0)
(1.30356 -0.425117 0)
(1.32773 -0.521909 0)
(1.34745 -0.643634 0)
(1.33592 -0.778273 0)
(1.28933 -0.977782 0)
(1.2281 -1.37088 0)
(0.874379 -1.59043 0)
(0.999225 -0.00685576 0)
(0.99946 -0.00676187 0)
(0.99956 -0.00666875 0)
(0.999521 -0.00657537 0)
(0.999324 -0.00648036 0)
(0.998945 -0.00638176 0)
(0.998349 -0.00627742 0)
(0.997501 -0.00616523 0)
(0.996373 -0.00604338 0)
(0.994949 -0.00591066 0)
(0.99324 -0.00576671 0)
(0.991286 -0.00561229 0)
(0.989167 -0.00544926 0)
(0.987003 -0.0052805 0)
(0.98494 -0.00510952 0)
(0.983143 -0.00493995 0)
(0.981772 -0.00477501 0)
(0.980955 -0.00461696 0)
(0.98077 -0.00446679 0)
(0.998006 -0.00821061 0)
(0.997782 -0.00808806 0)
(0.997669 -0.00795189 0)
(0.997658 -0.00780626 0)
(0.997754 -0.00765436 0)
(0.997975 -0.00750035 0)
(0.998353 -0.00734921 0)
(0.998926 -0.00720643 0)
(0.999734 -0.00707765 0)
(1.00081 -0.00696808 0)
(1.00217 -0.00688178 0)
(1.0038 -0.0068209 0)
(1.00565 -0.00678497 0)
(1.00763 -0.00677061 0)
(1.00959 -0.00677162 0)
(1.01138 -0.00677972 0)
(1.01283 -0.00678566 0)
(1.01378 -0.00678076 0)
(1.01413 -0.00675831 0)
(0.994464 -0.0160511 0)
(0.994353 -0.0157409 0)
(0.994173 -0.015428 0)
(0.993935 -0.0151105 0)
(0.993641 -0.014788 0)
(0.993284 -0.0144595 0)
(0.992851 -0.0141242 0)
(0.992321 -0.0137813 0)
(0.991666 -0.0134305 0)
(0.990862 -0.0130719 0)
(0.989886 -0.0127069 0)
(0.988729 -0.0123387 0)
(0.987405 -0.0119723 0)
(0.985954 -0.0116149 0)
(0.984452 -0.0112753 0)
(0.983006 -0.0109625 0)
(0.981744 -0.0106841 0)
(0.980797 -0.0104446 0)
(0.980278 -0.0102431 0)
(0.991154 -0.0190842 0)
(0.99085 -0.0188065 0)
(0.99062 -0.018524 0)
(0.990463 -0.0182393 0)
(0.990389 -0.0179527 0)
(0.99042 -0.0176651 0)
(0.990585 -0.0173777 0)
(0.990926 -0.0170916 0)
(0.991486 -0.0168073 0)
(0.992311 -0.0165246 0)
(0.993438 -0.0162411 0)
(0.994885 -0.0159519 0)
(0.996637 -0.0156487 0)
(0.998638 -0.0153196 0)
(1.00078 -0.0149501 0)
(1.0029 -0.0145244 0)
(1.0048 -0.0140288 0)
(1.00627 -0.0134547 0)
(1.00711 -0.0128022 0)
(0.985642 -0.0230832 0)
(0.985422 -0.0224771 0)
(0.985152 -0.0218638 0)
(0.984846 -0.0212416 0)
(0.984511 -0.0206098 0)
(0.984143 -0.0199664 0)
(0.983734 -0.0193086 0)
(0.98326 -0.0186329 0)
(0.982685 -0.017936 0)
(0.981963 -0.0172148 0)
(0.981036 -0.0164677 0)
(0.979847 -0.0156965 0)
(0.978348 -0.0149071 0)
(0.976523 -0.0141113 0)
(0.974405 -0.0133261 0)
(0.972092 -0.0125727 0)
(0.969755 -0.0118725 0)
(0.967622 -0.0112425 0)
(0.965948 -0.0106897 0)
(0.979806 -0.0283461 0)
(0.979366 -0.0278693 0)
(0.978975 -0.0273818 0)
(0.978623 -0.0268862 0)
(0.978309 -0.0263812 0)
(0.978041 -0.0258654 0)
(0.977834 -0.0253377 0)
(0.977716 -0.0247968 0)
(0.977728 -0.024241 0)
(0.977923 -0.0236683 0)
(0.978368 -0.0230752 0)
(0.979134 -0.022456 0)
(0.980286 -0.0218007 0)
(0.981858 -0.0210945 0)
(0.983827 -0.0203165 0)
(0.986092 -0.0194421 0)
(0.988453 -0.0184466 0)
(0.990621 -0.017312 0)
(0.99226 -0.0160355 0)
(0.972853 -0.0321298 0)
(0.972385 -0.0311393 0)
(0.97188 -0.0301144 0)
(0.971343 -0.0290559 0)
(0.970773 -0.0279667 0)
(0.970164 -0.0268482 0)
(0.969504 -0.0257015 0)
(0.96877 -0.0245276 0)
(0.967926 -0.0233273 0)
(0.966919 -0.0221018 0)
(0.965675 -0.0208533 0)
(0.964102 -0.0195869 0)
(0.9621 -0.0183125 0)
(0.959582 -0.0170469 0)
(0.956513 -0.0158154 0)
(0.95295 -0.0146506 0)
(0.949089 -0.0135883 0)
(0.945279 -0.0126586 0)
(0.941991 -0.0118749 0)
(0.964787 -0.040977 0)
(0.9638 -0.0402618 0)
(0.962877 -0.0395243 0)
(0.962007 -0.0387689 0)
(0.961183 -0.0379953 0)
(0.960408 -0.0372041 0)
(0.959691 -0.0363965 0)
(0.959052 -0.0355738 0)
(0.958527 -0.034737 0)
(0.958171 -0.0338871 0)
(0.958065 -0.033024 0)
(0.958316 -0.0321451 0)
(0.959054 -0.0312429 0)
(0.960404 -0.0303023 0)
(0.962448 -0.0292974 0)
(0.965163 -0.0281912 0)
(0.968362 -0.0269387 0)
(0.971659 -0.0254975 0)
(0.9745 -0.0238425 0)
(0.956755 -0.0499706 0)
(0.955798 -0.048596 0)
(0.954829 -0.0471651 0)
(0.953856 -0.0456798 0)
(0.952882 -0.0441441 0)
(0.951906 -0.0425609 0)
(0.950919 -0.0409325 0)
(0.949902 -0.0392613 0)
(0.948825 -0.0375495 0)
(0.947635 -0.035799 0)
(0.946249 -0.0340121 0)
(0.944549 -0.0321926 0)
(0.942378 -0.0303478 0)
(0.939557 -0.0284924 0)
(0.935927 -0.026652 0)
(0.931426 -0.0248651 0)
(0.926181 -0.0231803 0)
(0.920599 -0.0216462 0)
(0.915379 -0.0202929 0)
(0.947581 -0.0622506 0)
(0.945856 -0.0612418 0)
(0.944222 -0.0601906 0)
(0.942664 -0.0591008 0)
(0.941176 -0.0579721 0)
(0.939759 -0.0568053 0)
(0.938418 -0.0556021 0)
(0.937166 -0.0543643 0)
(0.936028 -0.0530938 0)
(0.93505 -0.0517926 0)
(0.934307 -0.0504627 0)
(0.933912 -0.049105 0)
(0.934029 -0.0477172 0)
(0.934855 -0.0462909 0)
(0.936578 -0.0448058 0)
(0.939295 -0.0432254 0)
(0.942895 -0.0414971 0)
(0.946945 -0.0395607 0)
(0.950681 -0.0373714 0)
(0.938203 -0.0772768 0)
(0.936509 -0.0754303 0)
(0.934809 -0.0734996 0)
(0.933122 -0.0714875 0)
(0.93146 -0.0693969 0)
(0.929826 -0.0672289 0)
(0.92822 -0.0649844 0)
(0.926632 -0.0626649 0)
(0.925039 -0.0602723 0)
(0.923402 -0.0578091 0)
(0.92165 -0.0552785 0)
(0.919668 -0.0526852 0)
(0.917285 -0.0500371 0)
(0.914268 -0.0473483 0)
(0.910352 -0.0446446 0)
(0.905325 -0.041969 0)
(0.899177 -0.0393832 0)
(0.89228 -0.0369571 0)
(0.885502 -0.0347438 0)
(0.928234 -0.0917227 0)
(0.925536 -0.0903056 0)
(0.922957 -0.088793 0)
(0.92048 -0.0871923 0)
(0.918097 -0.0855084 0)
(0.915807 -0.0837484 0)
(0.913613 -0.0819206 0)
(0.911528 -0.0800334 0)
(0.909574 -0.078095 0)
(0.907787 -0.076113 0)
(0.906233 -0.074094 0)
(0.905021 -0.0720431 0)
(0.904318 -0.0699624 0)
(0.904357 -0.0678477 0)
(0.90541 -0.065682 0)
(0.907699 -0.0634272 0)
(0.911229 -0.0610164 0)
(0.915579 -0.0583597 0)
(0.919792 -0.0553723 0)
(0.917391 -0.111987 0)
(0.914544 -0.1095 0)
(0.91171 -0.106894 0)
(0.908923 -0.104175 0)
(0.906205 -0.101343 0)
(0.903573 -0.0983942 0)
(0.901033 -0.0953259 0)
(0.898585 -0.0921351 0)
(0.896215 -0.0888198 0)
(0.893895 -0.0853791 0)
(0.891568 -0.0818139 0)
(0.889134 -0.078127 0)
(0.886426 -0.0743245 0)
(0.88319 -0.0704194 0)
(0.879082 -0.0664388 0)
(0.873735 -0.0624344 0)
(0.866936 -0.0584934 0)
(0.85892 -0.0547346 0)
(0.850662 -0.0512762 0)
(0.906295 -0.12898 0)
(0.902204 -0.126922 0)
(0.898288 -0.124639 0)
(0.894532 -0.122158 0)
(0.890925 -0.119496 0)
(0.887461 -0.11668 0)
(0.884144 -0.113736 0)
(0.880981 -0.110691 0)
(0.877988 -0.107571 0)
(0.875194 -0.104401 0)
(0.872652 -0.101207 0)
(0.870453 -0.0980104 0)
(0.868753 -0.0948318 0)
(0.867796 -0.0916854 0)
(0.867922 -0.0885727 0)
(0.869499 -0.0854674 0)
(0.872735 -0.0822938 0)
(0.877349 -0.0789131 0)
(0.882249 -0.0751446 0)
(0.893648 -0.15432 0)
(0.888956 -0.15084 0)
(0.884356 -0.147196 0)
(0.879886 -0.143371 0)
(0.875589 -0.139372 0)
(0.871501 -0.135192 0)
(0.867639 -0.130827 0)
(0.864016 -0.126275 0)
(0.86063 -0.121538 0)
(0.857467 -0.116616 0)
(0.854491 -0.111514 0)
(0.851629 -0.106235 0)
(0.848741 -0.100786 0)
(0.845587 -0.0951755 0)
(0.841778 -0.0894219 0)
(0.836788 -0.0835712 0)
(0.830087 -0.0777255 0)
(0.821532 -0.072063 0)
(0.811951 -0.0668255 0)
(0.880612 -0.176004 0)
(0.874303 -0.172878 0)
(0.868265 -0.169218 0)
(0.862522 -0.165144 0)
(0.857082 -0.160686 0)
(0.851934 -0.155911 0)
(0.847099 -0.150883 0)
(0.842586 -0.14566 0)
(0.838411 -0.140306 0)
(0.834592 -0.134884 0)
(0.83116 -0.129458 0)
(0.828174 -0.124091 0)
(0.825744 -0.118849 0)
(0.824072 -0.113791 0)
(0.823496 -0.108972 0)
(0.824495 -0.104421 0)
(0.827562 -0.1001 0)
(0.832806 -0.0958641 0)
(0.839299 -0.0914021 0)
(0.865461 -0.207633 0)
(0.85765 -0.202463 0)
(0.850127 -0.197019 0)
(0.842946 -0.191177 0)
(0.836145 -0.184966 0)
(0.829835 -0.178401 0)
(0.824035 -0.171492 0)
(0.818785 -0.164281 0)
(0.814104 -0.156801 0)
(0.81 -0.149093 0)
(0.806457 -0.141193 0)
(0.803434 -0.133135 0)
(0.800833 -0.124945 0)
(0.798461 -0.116645 0)
(0.795951 -0.10825 0)
(0.792689 -0.0997876 0)
(0.787809 -0.0913508 0)
(0.780491 -0.0831346 0)
(0.770794 -0.0755288 0)
(0.849419 -0.2373 0)
(0.839135 -0.232384 0)
(0.829353 -0.226276 0)
(0.82007 -0.219292 0)
(0.811487 -0.211551 0)
(0.803552 -0.203142 0)
(0.796373 -0.194221 0)
(0.789977 -0.184894 0)
(0.784405 -0.175296 0)
(0.779668 -0.165561 0)
(0.775785 -0.155833 0)
(0.772767 -0.146262 0)
(0.770656 -0.137009 0)
(0.769552 -0.128238 0)
(0.769687 -0.120115 0)
(0.771503 -0.112798 0)
(0.775685 -0.106362 0)
(0.782899 -0.1008 0)
(0.793043 -0.0957481 0)
(0.830917 -0.278446 0)
(0.817716 -0.270638 0)
(0.804894 -0.262056 0)
(0.793023 -0.252588 0)
(0.781897 -0.242123 0)
(0.771874 -0.230869 0)
(0.762975 -0.218866 0)
(0.755308 -0.206281 0)
(0.748917 -0.193268 0)
(0.74386 -0.179981 0)
(0.740129 -0.166573 0)
(0.737714 -0.153184 0)
(0.736541 -0.139925 0)
(0.736457 -0.126886 0)
(0.737148 -0.114119 0)
(0.738008 -0.101628 0)
(0.737962 -0.0895097 0)
(0.73552 -0.0778555 0)
(0.728951 -0.0671102 0)
(0.811797 -0.320664 0)
(0.793752 -0.312672 0)
(0.777278 -0.302654 0)
(0.761416 -0.29052 0)
(0.747141 -0.276998 0)
(0.734291 -0.262054 0)
(0.723131 -0.246048 0)
(0.713755 -0.229225 0)
(0.706274 -0.211834 0)
(0.70069 -0.194166 0)
(0.697045 -0.176507 0)
(0.695295 -0.159159 0)
(0.695404 -0.142444 0)
(0.697335 -0.126704 0)
(0.701122 -0.112305 0)
(0.707001 -0.0996773 0)
(0.715624 -0.0890665 0)
(0.727817 -0.0809132 0)
(0.745298 -0.0751408 0)
(0.788893 -0.376011 0)
(0.766743 -0.365057 0)
(0.744101 -0.35103 0)
(0.723835 -0.335395 0)
(0.705145 -0.317322 0)
(0.688712 -0.297495 0)
(0.674695 -0.276203 0)
(0.663285 -0.253732 0)
(0.654511 -0.23054 0)
(0.648531 -0.20696 0)
(0.645281 -0.183368 0)
(0.644781 -0.160122 0)
(0.646943 -0.137542 0)
(0.651633 -0.115915 0)
(0.658582 -0.0954703 0)
(0.667245 -0.0761979 0)
(0.67633 -0.0583894 0)
(0.68453 -0.0418257 0)
(0.687127 -0.0267709 0)
(0.768763 -0.437694 0)
(0.735916 -0.424127 0)
(0.707371 -0.408025 0)
(0.680201 -0.387278 0)
(0.656032 -0.363649 0)
(0.635125 -0.337611 0)
(0.617673 -0.309402 0)
(0.603748 -0.279902 0)
(0.593651 -0.249423 0)
(0.587183 -0.218534 0)
(0.584502 -0.187713 0)
(0.585491 -0.157428 0)
(0.590112 -0.128209 0)
(0.598253 -0.100618 0)
(0.609798 -0.075266 0)
(0.624653 -0.0532092 0)
(0.643713 -0.0347435 0)
(0.666404 -0.0215415 0)
(0.697858 -0.0145886 0)
(0.740359 -0.51281 0)
(0.701594 -0.497458 0)
(0.662877 -0.474725 0)
(0.627834 -0.447484 0)
(0.597383 -0.416728 0)
(0.571332 -0.382093 0)
(0.549968 -0.345656 0)
(0.533757 -0.307367 0)
(0.522061 -0.268205 0)
(0.51536 -0.228656 0)
(0.513294 -0.189195 0)
(0.515994 -0.150374 0)