/*--------------------------------*- C++ -*----------------------------------*\
  =========                 |
  \\      /  F ield         | OpenFOAM: The Open Source CFD Toolbox
   \\    /   O peration     | Website:  https://openfoam.org
    \\  /    A nd           | Version:  10
     \\/     M anipulation  |
\*---------------------------------------------------------------------------*/
FoamFile
{
    format      ascii;
    class       volVectorField;
    location    "0";
    object      U;
}
// * * * * * * * * * * * * * * * * * * * * * * * * * * * * * * * * * * * * * //

dimensions      [0 1 -1 0 0 0 0];

internalField   nonuniform List<vector> 
18483
(
(0.999999 -0.000143776 0)
(1 -0.000513371 0)
(1 -0.000821515 0)
(1.00001 -0.00116127 0)
(1.00001 -0.00149382 0)
(1.00001 -0.00182508 0)
(1.00002 -0.0021415 0)
(1.00002 -0.00243191 0)
(1.00002 -0.00268529 0)
(1.00002 -0.00289496 0)
(1.00001 -0.00306478 0)
(0.999994 -0.00321688 0)
(0.999959 -0.00338929 0)
(0.999905 -0.00364555 0)
(0.999827 -0.00402747 0)
(0.999707 -0.00450728 0)
(0.999429 -0.00497778 0)
(0.998548 -0.00530408 0)
(0.996114 -0.0053871 0)
(0.991576 -0.00517968 0)
(0.986783 -0.00484814 0)
(0.985207 -0.00459405 0)
(0.98765 -0.00437605 0)
(0.991619 -0.00411664 0)
(0.994954 -0.00384977 0)
(0.997153 -0.00361104 0)
(0.998466 -0.00340866 0)
(0.999208 -0.00324036 0)
(0.99959 -0.00309961 0)
(1.00045 -0.000449382 0)
(1.00047 -0.00158169 0)
(1.00052 -0.00249991 0)
(1.00057 -0.00349212 0)
(1.00063 -0.00442787 0)
(1.00068 -0.00533317 0)
(1.00071 -0.00617298 0)
(1.00071 -0.00692519 0)
(1.00067 -0.00756988 0)
(1.00061 -0.0080993 0)
(1.00053 -0.00851296 0)
(1.00048 -0.00881328 0)
(1.0005 -0.0089666 0)
(1.0006 -0.00885165 0)
(1.00075 -0.0083512 0)
(1.00082 -0.00748185 0)
(1.00075 -0.00641934 0)
(1.00082 -0.00538135 0)
(1.00203 -0.00455143 0)
(1.00557 -0.00408054 0)
(1.0103 -0.00388271 0)
(1.0123 -0.00365659 0)
(1.00981 -0.00340213 0)
(1.00545 -0.00327376 0)
(1.0019 -0.0032171 0)
(0.999692 -0.00315783 0)
(0.998409 -0.00307486 0)
(0.997657 -0.00296809 0)
(0.997209 -0.0028482 0)
(1.0014 -0.00077716 0)
(1.00145 -0.00270779 0)
(1.00157 -0.0042496 0)
(1.00168 -0.0058946 0)
(1.0018 -0.00740609 0)
(1.00188 -0.00884072 0)
(1.00191 -0.0101415 0)
(1.00186 -0.0112776 0)
(1.00173 -0.0122096 0)
(1.00153 -0.0129063 0)
(1.0013 -0.0133357 0)
(1.00106 -0.0134784 0)
(1.00084 -0.0133735 0)
(1.0006 -0.0131482 0)
(1.00025 -0.0130936 0)
(0.999791 -0.0134229 0)
(0.999167 -0.0140684 0)
(0.997987 -0.0148229 0)
(0.995216 -0.0154104 0)
(0.990056 -0.0156188 0)
(0.984077 -0.0152543 0)
(0.981221 -0.01455 0)
(0.983231 -0.0138297 0)
(0.987374 -0.0130128 0)
(0.990753 -0.0121666 0)
(0.992798 -0.0114227 0)
(0.993918 -0.01081 0)
(0.994511 -0.0103238 0)
(0.994815 -0.00994456 0)
(1.00264 -0.00110489 0)
(1.00273 -0.00382686 0)
(1.00292 -0.00599492 0)
(1.0031 -0.0083015 0)
(1.00328 -0.0104018 0)
(1.00339 -0.0123902 0)
(1.00339 -0.0141832 0)
(1.00326 -0.0157425 0)
(1.00295 -0.0170107 0)
(1.00248 -0.0179485 0)
(1.00185 -0.0185401 0)
(1.00107 -0.0187971 0)
(1.0002 -0.0187856 0)
(0.999304 -0.0185381 0)
(0.998509 -0.0179017 0)
(0.997933 -0.0166073 0)
(0.997565 -0.0145827 0)
(0.997544 -0.012184 0)
(0.998624 -0.00998349 0)
(1.00184 -0.00850089 0)
(1.00623 -0.00805226 0)
(1.00788 -0.00831066 0)
(1.00464 -0.00855628 0)
(0.999312 -0.00865551 0)
(0.99519 -0.00867023 0)
(0.992864 -0.00854832 0)
(0.991701 -0.00832192 0)
(0.991151 -0.00803515 0)
(0.990908 -0.00772147 0)
(1.004 -0.00140507 0)
(1.00412 -0.00485288 0)
(1.00439 -0.00761399 0)
(1.00465 -0.0105667 0)
(1.0049 -0.0132701 0)
(1.00505 -0.0158582 0)
(1.00504 -0.0182235 0)
(1.00481 -0.0203266 0)
(1.00432 -0.0221002 0)
(1.00356 -0.0234985 0)
(1.00255 -0.0244935 0)
(1.00134 -0.0250567 0)
(1.00003 -0.0251561 0)
(0.998693 -0.0247774 0)
(0.997312 -0.0240143 0)
(0.995789 -0.0232514 0)
(0.9941 -0.0228902 0)
(0.992369 -0.0228971 0)
(0.990423 -0.0229096 0)
(0.987462 -0.0225313 0)
(0.983343 -0.0214294 0)
(0.980366 -0.0197104 0)
(0.980828 -0.0180205 0)
(0.983273 -0.016602 0)
(0.985121 -0.0152867 0)
(0.985893 -0.0141153 0)
(0.986085 -0.0131092 0)
(0.986044 -0.0122486 0)
(0.985922 -0.0115186 0)
(1.00543 -0.001666 0)
(1.00561 -0.00574716 0)
(1.00596 -0.00904628 0)
(1.00632 -0.0126078 0)
(1.00667 -0.0159114 0)
(1.00689 -0.0191308 0)
(1.00691 -0.0221369 0)
(1.00663 -0.0248876 0)
(1.00603 -0.0272944 0)
(1.00507 -0.0292818 0)
(1.00378 -0.0307833 0)
(1.00222 -0.0317575 0)
(1.00043 -0.032216 0)
(0.998435 -0.0322448 0)
(0.9963 -0.0319339 0)
(0.994181 -0.0311757 0)
(0.992347 -0.0296268 0)
(0.991093 -0.027211 0)
(0.990924 -0.0243774 0)
(0.99253 -0.0217586 0)
(0.995565 -0.0199309 0)
(0.997259 -0.01911 0)
(0.994932 -0.0186569 0)
(0.989981 -0.0180845 0)
(0.985642 -0.0175362 0)
(0.982923 -0.0169956 0)
(0.981324 -0.0164201 0)
(0.980359 -0.0158328 0)
(0.979753 -0.0152514 0)
(1.00694 -0.00188909 0)
(1.00719 -0.00651307 0)
(1.00764 -0.0102908 0)
(1.00814 -0.0144124 0)
(1.00863 -0.0182933 0)
(1.00897 -0.0221467 0)
(1.00907 -0.0258248 0)
(1.00883 -0.0292823 0)
(1.00815 -0.0324102 0)
(1.00701 -0.0351185 0)
(1.00539 -0.0373308 0)
(1.00331 -0.0390094 0)
(1.00085 -0.0401425 0)
(0.998143 -0.0406907 0)
(0.995338 -0.0405818 0)
(0.992503 -0.0399363 0)
(0.989582 -0.0392693 0)
(0.986552 -0.0390081 0)
(0.983516 -0.0389087 0)
(0.980301 -0.0383794 0)
(0.976622 -0.0369674 0)
(0.973323 -0.0345592 0)
(0.972258 -0.0318557 0)
(0.973261 -0.0295761 0)
(0.974222 -0.0275581 0)
(0.974297 -0.0257192 0)
(0.973893 -0.0241239 0)
(0.973361 -0.0227456 0)
(0.97284 -0.0215644 0)
(1.00849 -0.00208061 0)
(1.00882 -0.00717036 0)
(1.00941 -0.0113711 0)
(1.01008 -0.0159996 0)
(1.01075 -0.0204196 0)
(1.01128 -0.0248852 0)
(1.01153 -0.0292347 0)
(1.01137 -0.0334286 0)
(1.01069 -0.0373503 0)
(1.00942 -0.0409055 0)
(1.00754 -0.0439964 0)
(1.00509 -0.0465288 0)
(1.0022 -0.0484119 0)
(0.998988 -0.0495981 0)
(0.995516 -0.0501461 0)
(0.991842 -0.050188 0)
(0.98818 -0.0496379 0)
(0.984896 -0.0481208 0)
(0.98236 -0.0455797 0)
(0.981089 -0.0425804 0)
(0.981426 -0.039903 0)
(0.982133 -0.0381578 0)
(0.980666 -0.037061 0)
(0.976595 -0.0358322 0)
(0.972222 -0.0345733 0)
(0.969096 -0.0334818 0)
(0.967033 -0.0324396 0)
(0.965594 -0.0314421 0)
(0.964538 -0.0304975 0)
(1.01004 -0.00224654 0)
(1.01047 -0.00773865 0)
(1.0112 -0.0123121 0)
(1.01206 -0.0173938 0)
(1.01296 -0.0223058 0)
(1.01371 -0.0273435 0)
(1.01417 -0.032337 0)
(1.01417 -0.0372572 0)
(1.01361 -0.0419817 0)
(1.01237 -0.0464036 0)
(1.01044 -0.0503915 0)
(1.00783 -0.0538144 0)
(1.0046 -0.0565701 0)
(1.00082 -0.0586186 0)
(0.996606 -0.0599208 0)
(0.992152 -0.0603682 0)
(0.987616 -0.0600214 0)
(0.982978 -0.0594011 0)
(0.978231 -0.0590594 0)
(0.973489 -0.0588171 0)
(0.968619 -0.0579417 0)
(0.96373 -0.0558996 0)
(0.960108 -0.0529906 0)
(0.958847 -0.0502039 0)
(0.958786 -0.0477397 0)
(0.958378 -0.0453269 0)
(0.95752 -0.0431118 0)
(0.956553 -0.0411484 0)
(0.955631 -0.0394251 0)
(1.01155 -0.0023909 0)
(1.01208 -0.0082313 0)
(1.01297 -0.0131314 0)
(1.01404 -0.0186136 0)
(1.01518 -0.0239659 0)
(1.01618 -0.0295233 0)
(1.0169 -0.0351109 0)
(1.01715 -0.040711 0)
(1.01679 -0.0461982 0)
(1.01569 -0.0514635 0)
(1.01377 -0.0563743 0)
(1.01099 -0.0608071 0)
(1.00736 -0.0646435 0)
(1.00297 -0.0677682 0)
(0.99797 -0.0700628 0)
(0.992515 -0.0714791 0)
(0.986751 -0.0720898 0)
(0.981027 -0.0717949 0)
(0.975905 -0.0702531 0)
(0.971938 -0.0675364 0)
(0.969506 -0.0644091 0)
(0.968291 -0.0618644 0)
(0.966523 -0.060206 0)
(0.962587 -0.0585762 0)
(0.957384 -0.0566836 0)
(0.952971 -0.054998 0)
(0.949846 -0.0534627 0)
(0.947537 -0.0519811 0)
(0.945739 -0.0505845 0)
(1.01299 -0.00251588 0)
(1.01362 -0.00865557 0)
(1.01467 -0.013839 0)
(1.01596 -0.0196709 0)
(1.01735 -0.02541 0)
(1.01865 -0.0314291 0)
(1.01966 -0.0375511 0)
(1.0202 -0.0437724 0)
(1.0201 -0.0499743 0)
(1.01919 -0.056065 0)
(1.01737 -0.0619265 0)
(1.01456 -0.0674355 0)
(1.01076 -0.0724306 0)
(1.00607 -0.0767336 0)
(1.00057 -0.0802032 0)
(0.99441 -0.0827036 0)
(0.987826 -0.0840651 0)
(0.981133 -0.0843598 0)
(0.974463 -0.0841735 0)
(0.96787 -0.0840677 0)
(0.96123 -0.0837837 0)
(0.954178 -0.0824467 0)
(0.947378 -0.0797054 0)
(0.942874 -0.0765422 0)
(0.941074 -0.0737452 0)
(0.939966 -0.0709208 0)
(0.938387 -0.0680993 0)
(0.936655 -0.0655341 0)
(0.935044 -0.0632355 0)
(1.01435 -0.00262273 0)
(1.01507 -0.00901549 0)
(1.01629 -0.014441 0)
(1.0178 -0.0205743 0)
(1.01947 -0.0266479 0)
(1.02106 -0.0330713 0)
(1.0224 -0.0396674 0)
(1.02326 -0.0464484 0)
(1.02348 -0.0533069 0)
(1.02287 -0.0601697 0)
(1.02132 -0.0669279 0)
(1.01873 -0.0734552 0)
(1.01508 -0.0795863 0)
(1.01033 -0.0851353 0)
(1.00449 -0.0899329 0)
(0.997646 -0.0937999 0)
(0.989947 -0.0965818 0)
(0.981682 -0.0982413 0)
(0.97349 -0.0985546 0)
(0.966276 -0.0971438 0)
(0.960689 -0.094298 0)
(0.956858 -0.0912288 0)
(0.953843 -0.089006 0)
(0.949472 -0.0871174 0)
(0.942816 -0.0847002 0)
(0.936005 -0.0822872 0)
(0.930915 -0.0801932 0)
(0.927194 -0.0781461 0)
(0.92426 -0.0761721 0)
(1.01562 -0.00271262 0)
(1.01644 -0.0093148 0)
(1.01782 -0.0149436 0)
(1.01955 -0.0213334 0)
(1.02149 -0.0276925 0)
(1.02339 -0.0344655 0)
(1.02507 -0.0414767 0)
(1.02629 -0.0487512 0)
(1.02688 -0.0561908 0)
(1.02667 -0.0637386 0)
(1.02552 -0.0713021 0)
(1.02329 -0.0787832 0)
(1.01986 -0.0860597 0)
(1.01513 -0.0929637 0)
(1.00903 -0.099297 0)
(1.00163 -0.104839 0)
(0.993058 -0.109281 0)
(0.983724 -0.112292 0)
(0.974249 -0.113908 0)
(0.965069 -0.114855 0)
(0.956036 -0.115668 0)
(0.946327 -0.115628 0)
(0.935797 -0.113644 0)
(0.926857 -0.110236 0)
(0.922083 -0.106908 0)
(0.919914 -0.103627 0)
(0.917383 -0.100016 0)
(0.91438 -0.0965816 0)
(0.911596 -0.0934853 0)
(1.0168 -0.00278697 0)
(1.01771 -0.0095585 0)
(1.01926 -0.0153549 0)
(1.0212 -0.0219606 0)
(1.0234 -0.0285603 0)
(1.02561 -0.0356326 0)
(1.02763 -0.0430028 0)
(1.02923 -0.050705 0)
(1.03023 -0.0586493 0)
(1.03044 -0.066798 0)
(1.02972 -0.0750892 0)
(1.02789 -0.0834682 0)
(1.02481 -0.0918572 0)
(1.02034 -0.100103 0)
(1.01439 -0.107975 0)
(1.00691 -0.115186 0)
(0.997917 -0.121351 0)
(0.987631 -0.126137 0)
(0.976676 -0.12938 0)
(0.966095 -0.130762 0)
(0.956744 -0.129854 0)
(0.949033 -0.127201 0)
(0.943183 -0.124552 0)
(0.937592 -0.122633 0)
(0.929197 -0.120171 0)
(0.918757 -0.117065 0)
(0.910229 -0.114318 0)
(0.904261 -0.111641 0)
(0.899581 -0.108874 0)
(1.0179 -0.00284748 0)
(1.01888 -0.00975277 0)
(1.02058 -0.0156851 0)
(1.02273 -0.0224703 0)
(1.02519 -0.0292707 0)
(1.02771 -0.0365974 0)
(1.03006 -0.044276 0)
(1.03203 -0.0523466 0)
(1.03343 -0.0607281 0)
(1.03408 -0.0694018 0)
(1.03382 -0.0783332 0)
(1.03251 -0.0875026 0)
(1.03001 -0.0968705 0)
(1.02614 -0.106326 0)
(1.02068 -0.115665 0)
(1.01338 -0.124624 0)
(1.00408 -0.132841 0)
(0.992945 -0.139902 0)
(0.980773 -0.145457 0)
(0.968479 -0.149582 0)
(0.956097 -0.152895 0)
(0.942769 -0.155441 0)
(0.927778 -0.155812 0)
(0.912872 -0.153075 0)
(0.902669 -0.149024 0)
(0.898172 -0.145096 0)
(0.894426 -0.140508 0)
(0.889404 -0.135696 0)
(0.884646 -0.131376 0)
(1.0189 -0.00289589 0)
(1.01997 -0.0099044 0)
(1.02181 -0.0159452 0)
(1.02415 -0.0228781 0)
(1.02686 -0.0298442 0)
(1.02967 -0.0373862 0)
(1.03235 -0.045329 0)
(1.03468 -0.0537158 0)
(1.03648 -0.0624722 0)
(1.03758 -0.0715909 0)
(1.03785 -0.0810544 0)
(1.03717 -0.0908742 0)
(1.03537 -0.101067 0)
(1.03223 -0.111604 0)
(1.0274 -0.122363 0)
(1.02051 -0.133119 0)
(1.01132 -0.143486 0)
(0.999972 -0.152937 0)
(0.987171 -0.160957 0)
(0.97374 -0.166981 0)
(0.960305 -0.170127 0)
(0.947488 -0.169883 0)
(0.93664 -0.167655 0)
(0.928136 -0.166006 0)
(0.917835 -0.164577 0)
(0.902794 -0.161513 0)
(0.888305 -0.158054 0)
(0.878385 -0.154808 0)
(0.870916 -0.151053 0)
(1.01983 -0.0029339 0)
(1.02097 -0.0100202 0)
(1.02295 -0.0161465 0)
(1.02547 -0.0231989 0)
(1.02841 -0.0303006 0)
(1.03149 -0.0380243 0)
(1.03448 -0.046192 0)
(1.03717 -0.0548478 0)
(1.03936 -0.0639201 0)
(1.04092 -0.0734053 0)
(1.04173 -0.0832978 0)
(1.04167 -0.0936439 0)
(1.0406 -0.104525 0)
(1.03825 -0.116004 0)
(1.03425 -0.128035 0)
(1.02818 -0.140442 0)
(1.01966 -0.15288 0)
(1.00862 -0.164877 0)
(0.995483 -0.175902 0)
(0.980841 -0.185434 0)
(0.964833 -0.193507 0)
(0.947041 -0.200664 0)
(0.926909 -0.206023 0)
(0.904808 -0.206809 0)
(0.885662 -0.203019 0)
(0.875315 -0.19826 0)
(0.86954 -0.192943 0)
(0.861609 -0.186333 0)
(0.853356 -0.180111 0)
(1.02068 -0.00296315 0)
(1.0219 -0.0101064 0)
(1.02399 -0.0162994 0)
(1.02668 -0.0234471 0)
(1.02984 -0.0306588 0)
(1.03319 -0.0385354 0)
(1.03647 -0.0468929 0)
(1.0395 -0.0557758 0)
(1.04207 -0.0651126 0)
(1.04405 -0.0748984 0)
(1.04536 -0.0851366 0)
(1.0459 -0.0959015 0)
(1.04555 -0.107326 0)
(1.04411 -0.119549 0)
(1.04119 -0.132618 0)
(1.03627 -0.14647 0)
(1.0288 -0.16091 0)
(1.01851 -0.175561 0)
(1.00567 -0.189816 0)
(0.99072 -0.202724 0)
(0.973949 -0.212876 0)
(0.955987 -0.218576 0)
(0.938559 -0.219525 0)
(0.924249 -0.218846 0)
(0.911004 -0.219614 0)
(0.891432 -0.218942 0)
(0.867703 -0.215342 0)
(0.849986 -0.211594 0)
(0.837727 -0.206927 0)
(1.02147 -0.00298519 0)
(1.02275 -0.0101688 0)
(1.02496 -0.0164131 0)
(1.0278 -0.0236353 0)
(1.03117 -0.0309356 0)
(1.03476 -0.0389402 0)
(1.03832 -0.0474569 0)
(1.04166 -0.0565319 0)
(1.04458 -0.0660912 0)
(1.04695 -0.0761244 0)
(1.04872 -0.0866361 0)
(1.04984 -0.0977146 0)
(1.05025 -0.109527 0)
(1.04978 -0.122286 0)
(1.04805 -0.136159 0)
(1.04446 -0.151244 0)
(1.03836 -0.167504 0)
(1.02939 -0.184653 0)
(1.01757 -0.202086 0)
(1.00289 -0.218882 0)
(0.984905 -0.234207 0)
(0.9632 -0.248412 0)
(0.937829 -0.261992 0)
(0.908583 -0.271787 0)
(0.877623 -0.272842 0)
(0.854783 -0.267887 0)
(0.843458 -0.262351 0)
(0.831845 -0.254556 0)
(0.817364 -0.245531 0)
(1.02219 -0.00300148 0)
(1.02353 -0.0102121 0)
(1.02584 -0.0164953 0)
(1.02882 -0.0237752 0)
(1.03239 -0.0311458 0)
(1.0362 -0.0392574 0)
(1.04003 -0.0479074 0)
(1.04366 -0.057145 0)
(1.04689 -0.0668921 0)
(1.04963 -0.0771268 0)
(1.05184 -0.0878468 0)
(1.05351 -0.0991426 0)
(1.05466 -0.111206 0)
(1.05515 -0.124324 0)
(1.0546 -0.138784 0)
(1.05245 -0.154834 0)
(1.04807 -0.172609 0)
(1.04092 -0.191984 0)
(1.0307 -0.212521 0)
(1.01705 -0.233398 0)
(0.999409 -0.253155 0)
(0.977977 -0.269388 0)
(0.954487 -0.279184 0)
(0.931833 -0.282759 0)
(0.912494 -0.286421 0)
(0.889305 -0.291968 0)
(0.854757 -0.292013 0)
(0.821967 -0.28804 0)
(0.800375 -0.283227 0)
(1.02284 -0.00301325 0)
(1.02424 -0.0102404 0)
(1.02664 -0.0165527 0)
(1.02976 -0.0238762 0)
(1.03351 -0.0313022 0)
(1.03753 -0.0395028 0)
(1.0416 -0.0482638 0)
(1.0455 -0.0576391 0)
(1.04903 -0.0675439 0)
(1.05211 -0.0779405 0)
(1.05472 -0.0888144 0)
(1.05691 -0.100252 0)
(1.05872 -0.112462 0)
(1.06008 -0.125788 0)
(1.0607 -0.140615 0)
(1.0601 -0.157331 0)
(1.05764 -0.176269 0)
(1.05266 -0.197525 0)
(1.04461 -0.220836 0)
(1.03289 -0.245498 0)
(1.01641 -0.270249 0)
(0.994037 -0.294203 0)
(0.965462 -0.318553 0)
(0.930561 -0.343081 0)
(0.888535 -0.359362 0)
(0.846261 -0.360232 0)
(0.819268 -0.354735 0)
(0.802102 -0.348237 0)
(0.778649 -0.33663 0)
(1.02343 -0.00302156 0)
(1.02487 -0.0102571 0)
(1.02737 -0.0165906 0)
(1.0306 -0.0239465 0)
(1.03453 -0.0314156 0)
(1.03873 -0.0396899 0)
(1.04303 -0.0485428 0)
(1.04719 -0.0580344 0)
(1.051 -0.0680709 0)
(1.05439 -0.0785979 0)
(1.05736 -0.0895853 0)
(1.05999 -0.101111 0)
(1.06238 -0.113383 0)
(1.06456 -0.126782 0)
(1.06633 -0.141774 0)
(1.06728 -0.158875 0)
(1.06682 -0.178623 0)
(1.06424 -0.201342 0)
(1.05884 -0.226975 0)
(1.04973 -0.255113 0)
(1.03548 -0.284885 0)
(1.01493 -0.314427 0)
(0.988931 -0.340024 0)
(0.959571 -0.356631 0)
(0.930091 -0.365651 0)
(0.901502 -0.379087 0)
(0.859672 -0.392621 0)
(0.804145 -0.392769 0)
(0.761567 -0.388453 0)
(1.02395 -0.00302723 0)
(1.02544 -0.010265 0)
(1.02803 -0.0166135 0)
(1.03137 -0.023993 0)
(1.03545 -0.0314953 0)
(1.03983 -0.0398302 0)
(1.04434 -0.0487584 0)
(1.04872 -0.058348 0)
(1.05279 -0.0684948 0)
(1.05646 -0.0791281 0)
(1.05974 -0.0901991 0)
(1.06276 -0.101769 0)
(1.06569 -0.114037 0)
(1.06861 -0.127399 0)
(1.07146 -0.142387 0)
(1.0739 -0.159637 0)
(1.07542 -0.17985 0)
(1.07536 -0.20358 0)
(1.07293 -0.231021 0)
(1.067 -0.262035 0)
(1.05606 -0.296087 0)
(1.03829 -0.331882 0)
(1.01195 -0.368877 0)
(0.97596 -0.409946 0)
(0.928542 -0.453214 0)
(0.867607 -0.479192 0)
(0.809347 -0.479358 0)
(0.774353 -0.475144 0)
(0.741802 -0.466259 0)
(1.02443 -0.00303092 0)
(1.02596 -0.0102665 0)
(1.02862 -0.0166251 0)
(1.03205 -0.0240212 0)
(1.03628 -0.0315487 0)
(1.04081 -0.0399331 0)
(1.04552 -0.0489231 0)
(1.05011 -0.0585954 0)
(1.05441 -0.0688347 0)
(1.05832 -0.0795553 0)
(1.06188 -0.0906868 0)
(1.06526 -0.102268 0)
(1.06865 -0.114482 0)
(1.07225 -0.127725 0)
(1.07607 -0.142583 0)
(1.0799 -0.159784 0)
(1.08331 -0.180156 0)
(1.08577 -0.204459 0)
(1.08648 -0.233169 0)
(1.08414 -0.266398 0)
(1.0771 -0.304096 0)
(1.06353 -0.345882 0)
(1.04174 -0.389612 0)
(1.01213 -0.429581 0)
(0.976147 -0.457199 0)
(0.937082 -0.477376 0)
(0.891364 -0.511691 0)
(0.816678 -0.537046 0)
(0.731297 -0.534706 0)
(1.02485 -0.00303313 0)
(1.02641 -0.0102634 0)
(1.02915 -0.0166286 0)
(1.03267 -0.0240357 0)
(1.03702 -0.0315821 0)
(1.04169 -0.0400068 0)
(1.04658 -0.0490472 0)
(1.05136 -0.0587894 0)
(1.05586 -0.0691061 0)
(1.06 -0.0798984 0)
(1.06381 -0.0910724 0)
(1.06749 -0.102642 0)
(1.0713 -0.114767 0)
(1.07548 -0.127839 0)
(1.08015 -0.142471 0)
(1.08525 -0.159463 0)
(1.09045 -0.179745 0)
(1.09531 -0.204233 0)
(1.09915 -0.233676 0)
(1.10066 -0.268482 0)
(1.098 -0.308862 0)
(1.08976 -0.355079 0)
(1.07354 -0.406274 0)
(1.04464 -0.462374 0)
(1.00091 -0.530626 0)
(0.938278 -0.608078 0)
(0.847403 -0.651244 0)
(0.759283 -0.650261 0)
(0.704215 -0.649271 0)
(1.02522 -0.00303423 0)
(1.02682 -0.0102572 0)
(1.02961 -0.0166261 0)
(1.03321 -0.0240401 0)
(1.03769 -0.0316006 0)
(1.04248 -0.0400577 0)
(1.04753 -0.0491393 0)
(1.05248 -0.0589405 0)
(1.05717 -0.0693222 0)
(1.0615 -0.0801732 0)
(1.06553 -0.0913767 0)
(1.06947 -0.102919 0)
(1.07363 -0.114935 0)
(1.07831 -0.127801 0)
(1.08374 -0.142141 0)
(1.08997 -0.158805 0)
(1.09682 -0.178808 0)
(1.10392 -0.203175 0)
(1.11073 -0.232863 0)
(1.11615 -0.268607 0)
(1.1182 -0.31082 0)
(1.11546 -0.360326 0)
(1.10638 -0.418228 0)
(1.08691 -0.482587 0)
(1.05536 -0.544592 0)
(1.01276 -0.589919 0)
(0.961293 -0.635414 0)
(0.881596 -0.717777 0)
(0.740408 -0.755079 0)
(1.02556 -0.00303452 0)
(1.02719 -0.0102491 0)
(1.03003 -0.0166197 0)
(1.0337 -0.0240373 0)
(1.03828 -0.031608 0)
(1.04319 -0.0400911 0)
(1.04838 -0.0492063 0)
(1.05348 -0.0590574 0)
(1.05834 -0.0694933 0)
(1.06285 -0.0803929 0)
(1.06707 -0.0916164 0)
(1.07123 -0.103122 0)
(1.07568 -0.115019 0)
(1.08078 -0.12766 0)
(1.08687 -0.141667 0)
(1.0941 -0.157922 0)
(1.10243 -0.177503 0)
(1.11159 -0.201523 0)
(1.12114 -0.231057 0)
(1.13026 -0.267126 0)
(1.13718 -0.310476 0)
(1.14017 -0.361957 0)
(1.13891 -0.423503 0)
(1.1299 -0.495996 0)
(1.10156 -0.579054 0)
(1.05177 -0.690151 0)
(0.980143 -0.839778 0)
(0.83519 -0.929652 0)
(0.653763 -0.921053 0)
(1.02585 -0.00303424 0)
(1.02751 -0.0102399 0)
(1.0304 -0.0166106 0)
(1.03414 -0.0240297 0)
(1.0388 -0.0316075 0)
(1.04382 -0.0401114 0)
(1.04913 -0.0492539 0)
(1.05437 -0.059147 0)
(1.05938 -0.0696287 0)
(1.06404 -0.0805686 0)
(1.06842 -0.0918058 0)
(1.07277 -0.103272 0)
(1.07746 -0.115045 0)
(1.08293 -0.127453 0)
(1.08958 -0.141109 0)
(1.09767 -0.156907 0)
(1.1073 -0.175971 0)
(1.11832 -0.199485 0)
(1.13038 -0.228594 0)
(1.14281 -0.264459 0)
(1.15447 -0.308238 0)
(1.16349 -0.360815 0)
(1.16922 -0.424094 0)
(1.17114 -0.502965 0)
(1.16214 -0.598118 0)
(1.1368 -0.692952 0)
(1.09265 -0.768489 0)
(1.02666 -0.887416 0)
(0.853902 -1.08856 0)
(1.02611 -0.00303356 0)
(1.02779 -0.0102302 0)
(1.03072 -0.0166 0)
(1.03452 -0.0240189 0)
(1.03926 -0.0316015 0)
(1.04437 -0.0401219 0)
(1.0498 -0.0492867 0)
(1.05516 -0.059215 0)
(1.0603 -0.0697353 0)
(1.06509 -0.080709 0)
(1.06962 -0.0919552 0)
(1.07412 -0.103379 0)
(1.07902 -0.115031 0)
(1.08479 -0.127207 0)
(1.09191 -0.140509 0)
(1.10075 -0.155832 0)
(1.1115 -0.174322 0)
(1.12416 -0.197217 0)
(1.13848 -0.225725 0)
(1.15385 -0.26102 0)
(1.16971 -0.304528 0)
(1.18477 -0.357528 0)
(1.1974 -0.421268 0)
(1.20984 -0.501139 0)
(1.22015 -0.602238 0)
(1.20487 -0.71631 0)
(1.16052 -0.884534 0)
(1.10912 -1.21661 0)
(0.805695 -1.40921 0)
(0.999738 -0.00297865 0)
(0.999718 -0.00286293 0)
(0.999521 -0.00274106 0)
(0.999118 -0.00261192 0)
(0.99847 -0.00247497 0)
(0.997536 -0.00233034 0)
(0.996284 -0.00217932 0)
(0.994693 -0.00202465 0)
(0.992773 -0.00187064 0)
(0.99057 -0.00172302 0)
(0.988172 -0.00158859 0)
(0.985713 -0.00147444 0)
(0.983364 -0.00138709 0)
(0.981314 -0.00133139 0)
(0.979753 -0.00130963 0)
(0.978835 -0.00132085 0)
(0.978657 -0.00136073 0)
(0.979236 -0.00142189 0)
(0.980504 -0.00149474 0)
(0.99695 -0.00272788 0)
(0.996821 -0.00261057 0)
(0.996829 -0.00249635 0)
(0.997014 -0.00239055 0)
(0.997432 -0.00229765 0)
(0.99815 -0.00222261 0)
(0.999236 -0.00217015 0)
(1.00075 -0.00214387 0)
(1.00271 -0.00214531 0)
(1.00511 -0.00217321 0)
(1.00788 -0.00222293 0)
(1.01088 -0.00228634 0)
(1.01391 -0.00235241 0)
(1.01673 -0.00240831 0)
(1.01909 -0.00244119 0)
(1.02073 -0.00243996 0)
(1.0215 -0.00239706 0)
(1.02132 -0.00230959 0)
(1.0202 -0.00217962 0)
(0.994959 -0.00964406 0)
(0.995008 -0.00937843 0)
(0.994975 -0.00911882 0)
(0.994851 -0.0088606 0)
(0.994612 -0.00859861 0)
(0.994225 -0.00832543 0)
(0.993645 -0.00803219 0)
(0.992826 -0.00770943 0)
(0.991726 -0.0073481 0)
(0.99032 -0.00694095 0)
(0.988616 -0.00648405 0)
(0.986664 -0.00597803 0)
(0.984563 -0.00542884 0)
(0.982461 -0.00484758 0)
(0.980537 -0.00424937 0)
(0.978981 -0.00365142 0)
(0.97796 -0.00307054 0)
(0.977589 -0.00252071 0)
(0.977902 -0.00201127 0)
(0.990817 -0.00740749 0)
(0.990808 -0.00709223 0)
(0.990865 -0.00676515 0)
(0.990991 -0.00643097 0)
(0.991203 -0.00609234 0)
(0.991527 -0.00575261 0)
(0.992001 -0.00541574 0)
(0.992668 -0.00508572 0)
(0.993571 -0.00476603 0)
(0.99474 -0.00445877 0)
(0.99618 -0.00416357 0)
(0.997861 -0.00387667 0)
(0.999705 -0.00359039 0)
(1.00159 -0.00329344 0)
(1.00334 -0.00297219 0)
(1.00479 -0.00261289 0)
(1.00575 -0.0022045 0)
(1.0061 -0.00174141 0)
(1.00579 -0.00122525 0)
(0.985777 -0.010893 0)
(0.985619 -0.0103066 0)
(0.985438 -0.00970998 0)
(0.985226 -0.00910316 0)
(0.984967 -0.00848704 0)
(0.984635 -0.00786108 0)
(0.984193 -0.00722385 0)
(0.983593 -0.00657335 0)
(0.982783 -0.00590739 0)
(0.981709 -0.00522445 0)
(0.980332 -0.00452482 0)
(0.978637 -0.00381191 0)
(0.976656 -0.00309326 0)
(0.974471 -0.00238072 0)
(0.972228 -0.00168946 0)
(0.970117 -0.0010357 0)
(0.968359 -0.000433192 0)
(0.96716 0.000110414 0)
(0.966674 0.000596483 0)
(0.979356 -0.0146956 0)
(0.979073 -0.0141492 0)
(0.978867 -0.0135881 0)
(0.978734 -0.0130166 0)
(0.978679 -0.0124364 0)
(0.978712 -0.0118502 0)
(0.978856 -0.0112615 0)
(0.979139 -0.0106739 0)
(0.979599 -0.0100915 0)
(0.98028 -0.00951692 0)
(0.981219 -0.00895086 0)
(0.982441 -0.00838987 0)
(0.983938 -0.00782503 0)
(0.985656 -0.00724104 0)
(0.987482 -0.00661681 0)
(0.989248 -0.00592807 0)
(0.990741 -0.00515209 0)
(0.991743 -0.00427382 0)
(0.992069 -0.0032916 0)
(0.972377 -0.0205447 0)
(0.971951 -0.0195827 0)
(0.971539 -0.0185975 0)
(0.97114 -0.0175884 0)
(0.970749 -0.016556 0)
(0.97035 -0.0154994 0)
(0.969918 -0.0144174 0)
(0.969413 -0.0133085 0)
(0.96878 -0.0121713 0)
(0.967952 -0.0110052 0)
(0.966849 -0.00981183 0)
(0.965393 -0.00859706 0)
(0.963529 -0.00737305 0)
(0.961246 -0.00615994 0)
(0.958606 -0.00498607 0)
(0.955764 -0.00388552 0)
(0.952974 -0.00289247 0)
(0.95056 -0.0020328 0)
(0.948863 -0.00131481 0)
(0.963727 -0.029614 0)
(0.963044 -0.0287547 0)
(0.962424 -0.0278762 0)
(0.961863 -0.0269813 0)
(0.961363 -0.0260689 0)
(0.960929 -0.0251391 0)
(0.960576 -0.0241935 0)
(0.960329 -0.0232348 0)
(0.960225 -0.0222671 0)
(0.960321 -0.0212955 0)
(0.960691 -0.0203248 0)
(0.961418 -0.0193574 0)
(0.962584 -0.0183903 0)
(0.96424 -0.0174112 0)
(0.966371 -0.0163955 0)
(0.968865 -0.0153066 0)
(0.971484 -0.0140996 0)
(0.973874 -0.0127317 0)
(0.975619 -0.0111767 0)
(0.9548 -0.0379141 0)
(0.95402 -0.036474 0)
(0.953249 -0.0349884 0)
(0.952493 -0.0334584 0)
(0.951755 -0.0318869 0)
(0.951035 -0.0302751 0)
(0.950327 -0.0286241 0)
(0.949613 -0.0269344 0)
(0.948863 -0.025206 0)
(0.948025 -0.0234377 0)
(0.947018 -0.0216281 0)
(0.945733 -0.0197773 0)
(0.944038 -0.0178896 0)
(0.941805 -0.0159782 0)
(0.938943 -0.0140704 0)
(0.935465 -0.0122095 0)
(0.931549 -0.0104534 0)
(0.927574 -0.00886375 0)
(0.924102 -0.00748759 0)
(0.944293 -0.049281 0)
(0.943022 -0.048012 0)
(0.941825 -0.0467125 0)
(0.940697 -0.0453882 0)
(0.939641 -0.04404 0)
(0.938661 -0.0426693 0)
(0.937766 -0.0412782 0)
(0.93697 -0.0398689 0)
(0.936295 -0.0384439 0)
(0.935783 -0.0370067 0)
(0.935498 -0.0355614 0)
(0.935537 -0.0341125 0)
(0.936036 -0.0326623 0)
(0.93715 -0.0312066 0)
(0.939021 -0.0297276 0)
(0.941705 -0.028187 0)
(0.945091 -0.0265227 0)
(0.948816 -0.0246547 0)
(0.952256 -0.0225066 0)
(0.933608 -0.0611865 0)
(0.932271 -0.0592137 0)
(0.930958 -0.0571639 0)
(0.929683 -0.0550401 0)
(0.928453 -0.0528447 0)
(0.92727 -0.0505784 0)
(0.926133 -0.0482414 0)
(0.925033 -0.045834 0)
(0.923952 -0.0433563 0)
(0.922857 -0.040808 0)
(0.921688 -0.038188 0)
(0.920349 -0.035495 0)
(0.918693 -0.0327281 0)
(0.916521 -0.0298912 0)
(0.913602 -0.0270002 0)
(0.909736 -0.0240924 0)
(0.90487 -0.0212352 0)
(0.899251 -0.0185238 0)
(0.89354 -0.0160612 0)
(0.92188 -0.0743129 0)
(0.919778 -0.0724768 0)
(0.917781 -0.0705673 0)
(0.915881 -0.068594 0)
(0.914076 -0.0665624 0)
(0.912366 -0.0644793 0)
(0.910757 -0.0623526 0)
(0.909256 -0.0601902 0)
(0.907876 -0.0580001 0)
(0.906641 -0.0557899 0)
(0.905594 -0.0535676 0)
(0.904811 -0.0513415 0)
(0.904419 -0.0491201 0)
(0.90461 -0.0469099 0)
(0.905636 -0.0447097 0)
(0.907758 -0.0424988 0)
(0.911119 -0.0402221 0)
(0.915559 -0.03778 0)
(0.920435 -0.0350396 0)
(0.909122 -0.0906797 0)
(0.90682 -0.0879588 0)
(0.904568 -0.0851191 0)
(0.902392 -0.0821665 0)
(0.900307 -0.0791034 0)
(0.898325 -0.0759292 0)
(0.89645 -0.0726429 0)
(0.894681 -0.0692437 0)
(0.893006 -0.0657313 0)
(0.891405 -0.0621061 0)
(0.889839 -0.0583693 0)
(0.88824 -0.0545228 0)
(0.886492 -0.0505689 0)
(0.884405 -0.0465119 0)
(0.881693 -0.0423621 0)
(0.877992 -0.0381471 0)
(0.872954 -0.0339293 0)
(0.866472 -0.0298215 0)
(0.859009 -0.0259828 0)
(0.895778 -0.106201 0)
(0.892436 -0.103495 0)
(0.889269 -0.100615 0)
(0.886264 -0.0975831 0)
(0.883416 -0.0944181 0)
(0.880725 -0.0911415 0)
(0.878194 -0.087777 0)
(0.875829 -0.0843493 0)
(0.873638 -0.0808836 0)
(0.871638 -0.0774045 0)
(0.869858 -0.0739362 0)
(0.868352 -0.0705015 0)
(0.867218 -0.0671219 0)
(0.866622 -0.0638161 0)
(0.866832 -0.0605979 0)
(0.868219 -0.0574662 0)
(0.871178 -0.0543842 0)
(0.875892 -0.0512511 0)
(0.881952 -0.0478804 0)
(0.880484 -0.127416 0)
(0.876609 -0.12354 0)
(0.872852 -0.119484 0)
(0.869263 -0.115254 0)
(0.865873 -0.110858 0)
(0.86271 -0.106298 0)
(0.85979 -0.101577 0)
(0.857121 -0.0966983 0)
(0.854704 -0.0916642 0)
(0.852526 -0.0864779 0)
(0.85056 -0.0811419 0)
(0.848758 -0.075659 0)
(0.847028 -0.0700322 0)
(0.845214 -0.064266 0)
(0.843044 -0.0583692 0)
(0.840088 -0.052363 0)
(0.835763 -0.0463058 0)
(0.82951 -0.0403243 0)
(0.821253 -0.0346422 0)
(0.864768 -0.147181 0)
(0.859448 -0.143141 0)
(0.854449 -0.138691 0)
(0.849757 -0.133905 0)
(0.845385 -0.128819 0)
(0.841333 -0.123484 0)
(0.837613 -0.117953 0)
(0.834228 -0.112281 0)
(0.831187 -0.106524 0)
(0.828495 -0.100743 0)
(0.826165 -0.0950001 0)
(0.824226 -0.0893587 0)
(0.822739 -0.0838837 0)
(0.821826 -0.0786384 0)
(0.821715 -0.0736807 0)
(0.822794 -0.0690583 0)
(0.825627 -0.0647791 0)
(0.830785 -0.0607772 0)
(0.838391 -0.0568428 0)
(0.846368 -0.174421 0)
(0.839838 -0.168665 0)
(0.833564 -0.16257 0)
(0.827663 -0.156113 0)
(0.82218 -0.149317 0)
(0.817183 -0.142209 0)
(0.812707 -0.134817 0)
(0.808781 -0.127179 0)
(0.805421 -0.119334 0)
(0.802635 -0.111321 0)
(0.800412 -0.103174 0)
(0.798723 -0.0949236 0)
(0.797504 -0.0865898 0)
(0.796633 -0.0781872 0)
(0.795879 -0.0697271 0)
(0.794819 -0.0612142 0)
(0.792729 -0.0526964 0)
(0.788631 -0.0442925 0)
(0.781532 -0.0362545 0)
(0.827364 -0.201247 0)
(0.818439 -0.195099 0)
(0.810144 -0.188027 0)
(0.802405 -0.180191 0)
(0.795341 -0.171707 0)
(0.788974 -0.162663 0)
(0.78336 -0.153177 0)
(0.778529 -0.143363 0)
(0.774511 -0.133341 0)
(0.771309 -0.12324 0)
(0.768927 -0.113199 0)
(0.767358 -0.103365 0)
(0.766611 -0.0938945 0)
(0.766726 -0.0849539 0)
(0.767832 -0.0767045 0)
(0.770222 -0.0693224 0)
(0.774503 -0.0629116 0)
(0.781475 -0.0575194 0)
(0.792095 -0.0530567 0)
(0.805107 -0.237397 0)
(0.793815 -0.228749 0)
(0.78288 -0.219224 0)
(0.772799 -0.208871 0)
(0.763573 -0.197655 0)
(0.755386 -0.185715 0)
(0.748318 -0.173147 0)
(0.74246 -0.160095 0)
(0.737849 -0.146709 0)
(0.73453 -0.133144 0)
(0.732505 -0.119546 0)
(0.731759 -0.106052 0)
(0.732238 -0.0927682 0)
(0.733836 -0.0797723 0)
(0.736349 -0.0671211 0)
(0.739396 -0.0547808 0)
(0.742137 -0.0428014 0)
(0.743461 -0.0312687 0)
(0.741223 -0.0203191 0)
(0.782661 -0.275371 0)
(0.766766 -0.265884 0)
(0.752318 -0.254646 0)
(0.7388 -0.24161 0)
(0.726669 -0.227228 0)
(0.716022 -0.211633 0)
(0.707025 -0.195079 0)
(0.69976 -0.177818 0)
(0.694337 -0.160099 0)
(0.690765 -0.142187 0)
(0.68906 -0.12436 0)
(0.689184 -0.106905 0)
(0.691081 -0.090131 0)
(0.694683 -0.0743794 0)
(0.699961 -0.0599812 0)
(0.706959 -0.0474243 0)
(0.716338 -0.0369864 0)
(0.728615 -0.0289798 0)
(0.745724 -0.0238497 0)
(0.755955 -0.324833 0)
(0.736203 -0.312432 0)
(0.716619 -0.297399 0)
(0.698826 -0.280606 0)
(0.682839 -0.261794 0)
(0.668989 -0.241335 0)
(0.657455 -0.219568 0)
(0.648464 -0.196802 0)
(0.642032 -0.173409 0)
(0.638273 -0.14975 0)
(0.637175 -0.126176 0)
(0.638727 -0.103042 0)
(0.642863 -0.0806752 0)
(0.649467 -0.0593405 0)
(0.658321 -0.0393321 0)
(0.669224 -0.0205538 0)
(0.680818 -0.00320889 0)
(0.692544 0.0127425 0)
(0.701027 0.0277091 0)
(0.731529 -0.37995 0)
(0.70277 -0.365233 0)
(0.676975 -0.347538 0)
(0.65327 -0.326067 0)
(0.632236 -0.301749 0)
(0.614289 -0.275225 0)
(0.599742 -0.246823 0)
(0.588558 -0.217173 0)
(0.581019 -0.186726 0)
(0.577042 -0.155942 0)
(0.576691 -0.125302 0)
(0.57992 -0.0952597 0)
(0.586673 -0.0663123 0)
(0.596842 -0.0390543 0)
(0.610356 -0.0139225 0)
(0.626654 0.0078452 0)
(0.647111 0.0258574 0)
(0.670646 0.0389962 0)
(0.700676 0.0451705 0)
(0.700481 -0.448403 0)
(0.664775 -0.430662 0)
(0.630676 -0.407158 0)
(0.599528 -0.379158 0)