/*--------------------------------*- C++ -*----------------------------------*\
  =========                 |
  \\      /  F ield         | OpenFOAM: The Open Source CFD Toolbox
   \\    /   O peration     | Website:  https://openfoam.org
    \\  /    A nd           | Version:  10
     \\/     M anipulation  |
\*---------------------------------------------------------------------------*/
FoamFile
{
    format      ascii;
    class       volVectorField;
    location    "0";
    object      U;
}
// * * * * * * * * * * * * * * * * * * * * * * * * * * * * * * * * * * * * * //

dimensions      [0 1 -1 0 0 0 0];

internalField   nonuniform List<vector> 
18483
(
(1 -0.000162728 0)
(1 -0.000592237 0)
(1 -0.000972052 0)
(1.00001 -0.00140763 0)
(1.00001 -0.00185564 0)
(1.00001 -0.00231929 0)
(1.00001 -0.00277649 0)
(1.00002 -0.00320824 0)
(1.00002 -0.00359556 0)
(1.00002 -0.00392579 0)
(1.00002 -0.00419861 0)
(1.00001 -0.00442797 0)
(0.99999 -0.00464216 0)
(0.999961 -0.00488706 0)
(0.99992 -0.00520062 0)
(0.999856 -0.00557791 0)
(0.999691 -0.00593534 0)
(0.999084 -0.00616326 0)
(0.997122 -0.00620514 0)
(0.992775 -0.00606758 0)
(0.986969 -0.00591166 0)
(0.983353 -0.0058635 0)
(0.984316 -0.0057915 0)
(0.988145 -0.00556122 0)
(0.992078 -0.00523476 0)
(0.99497 -0.00490897 0)
(0.996836 -0.00462109 0)
(0.997976 -0.00437881 0)
(0.99865 -0.00417797 0)
(1.00051 -0.000489944 0)
(1.00055 -0.00175815 0)
(1.00064 -0.00285936 0)
(1.00075 -0.00411057 0)
(1.00086 -0.00537148 0)
(1.00096 -0.00666171 0)
(1.00103 -0.00791949 0)
(1.00105 -0.0091001 0)
(1.00103 -0.01016 0)
(1.00096 -0.0110698 0)
(1.00085 -0.011813 0)
(1.00073 -0.0123866 0)
(1.00064 -0.0127591 0)
(1.0006 -0.0128469 0)
(1.00058 -0.0125661 0)
(1.00046 -0.0119102 0)
(1.00021 -0.0110278 0)
(1.00015 -0.0101344 0)
(1.00141 -0.00938431 0)
(1.00559 -0.00883358 0)
(1.01195 -0.0083304 0)
(1.01588 -0.00771359 0)
(1.01399 -0.00718746 0)
(1.00869 -0.00699122 0)
(1.00384 -0.00700755 0)
(1.00065 -0.00705223 0)
(0.998763 -0.00706279 0)
(0.997658 -0.00703032 0)
(0.997 -0.00696471 0)
(1.00152 -0.000816139 0)
(1.00164 -0.00289719 0)
(1.00188 -0.00468206 0)
(1.00214 -0.00669486 0)
(1.00243 -0.00869278 0)
(1.00267 -0.010726 0)
(1.00283 -0.0126973 0)
(1.00287 -0.0145421 0)
(1.00279 -0.0161832 0)
(1.0026 -0.0175576 0)
(1.00231 -0.0186163 0)
(1.00196 -0.0193406 0)
(1.0016 -0.0197548 0)
(1.00122 -0.0199694 0)
(1.00078 -0.0202413 0)
(1.00028 -0.0207894 0)
(0.999688 -0.0216041 0)
(0.998595 -0.0224868 0)
(0.995698 -0.0231685 0)
(0.989498 -0.0234749 0)
(0.981305 -0.0233399 0)
(0.976433 -0.0229317 0)
(0.978322 -0.0223771 0)
(0.983789 -0.0215652 0)
(0.988471 -0.020619 0)
(0.991333 -0.0197552 0)
(0.992924 -0.0190391 0)
(0.993788 -0.0184694 0)
(0.994246 -0.0180254 0)
(1.00279 -0.00111274 0)
(1.003 -0.00392532 0)
(1.0034 -0.00633249 0)
(1.00386 -0.00904787 0)
(1.00435 -0.0117368 0)
(1.00477 -0.014486 0)
(1.00504 -0.0171644 0)
(1.00512 -0.0196902 0)
(1.00496 -0.0219541 0)
(1.00455 -0.0238727 0)
(1.0039 -0.0253868 0)
(1.00304 -0.0264676 0)
(1.00204 -0.0271332 0)
(1.00098 -0.0274037 0)
(0.999962 -0.027189 0)
(0.999079 -0.0262493 0)
(0.998349 -0.0244943 0)
(0.997995 -0.0222292 0)
(0.999069 -0.0200069 0)
(1.00325 -0.0183561 0)
(1.0098 -0.0176367 0)
(1.01329 -0.0176543 0)
(1.00971 -0.0178539 0)
(1.00245 -0.0180882 0)
(0.996601 -0.0182968 0)
(0.993239 -0.0183351 0)
(0.991485 -0.0182125 0)
(0.99059 -0.0179852 0)
(0.990139 -0.0176986 0)
(1.00413 -0.0013579 0)
(1.00445 -0.00477573 0)
(1.00503 -0.00771778 0)
(1.00571 -0.01106 0)
(1.00644 -0.0143978 0)
(1.00707 -0.0178549 0)
(1.00751 -0.0212762 0)
(1.00766 -0.0245737 0)
(1.00744 -0.027616 0)
(1.00682 -0.0302961 0)
(1.00583 -0.0325209 0)
(1.00452 -0.0342187 0)
(1.00299 -0.0353603 0)
(1.00133 -0.0359604 0)
(0.999567 -0.0361301 0)
(0.997687 -0.0362074 0)
(0.99565 -0.0365706 0)
(0.993431 -0.0372352 0)
(0.990488 -0.0378398 0)
(0.985584 -0.0379047 0)
(0.978909 -0.0370674 0)
(0.974536 -0.0354693 0)
(0.97608 -0.033741 0)
(0.980657 -0.032138 0)
(0.983772 -0.0305859 0)
(0.984931 -0.0292074 0)
(0.985179 -0.0280361 0)
(0.985082 -0.0270426 0)
(0.984865 -0.0262062 0)
(1.0055 -0.00154751 0)
(1.00595 -0.00543517 0)
(1.00672 -0.00881477 0)
(1.00767 -0.012697 0)
(1.00868 -0.0166294 0)
(1.0096 -0.0207739 0)
(1.01028 -0.0249612 0)
(1.01059 -0.0291 0)
(1.01043 -0.033027 0)
(1.00976 -0.0365914 0)
(1.00858 -0.0396518 0)
(1.00695 -0.0421115 0)
(1.00494 -0.0439335 0)
(1.00266 -0.0451236 0)
(1.00024 -0.0456797 0)
(0.997814 -0.0454871 0)
(0.995612 -0.0442811 0)
(0.993939 -0.0420642 0)
(0.993523 -0.0393604 0)
(0.995621 -0.0368936 0)
(1.00018 -0.0352847 0)
(1.00302 -0.0347011 0)
(0.999594 -0.0344802 0)
(0.992149 -0.0341445 0)
(0.985999 -0.033841 0)
(0.982375 -0.0334877 0)
(0.980226 -0.0330281 0)
(0.978867 -0.0325094 0)
(0.977963 -0.0319585 0)
(1.00689 -0.0016868 0)
(1.00748 -0.00592003 0)
(1.00848 -0.00964176 0)
(1.00972 -0.0139704 0)
(1.01109 -0.0184247 0)
(1.01237 -0.0232049 0)
(1.01339 -0.0281353 0)
(1.01398 -0.0331226 0)
(1.014 -0.0379792 0)
(1.01334 -0.0425305 0)
(1.01197 -0.0466122 0)
(1.0099 -0.0500983 0)
(1.00725 -0.0528912 0)
(1.00416 -0.0549096 0)
(1.00079 -0.0561236 0)
(0.997224 -0.0567258 0)
(0.993502 -0.0572195 0)
(0.989651 -0.0579997 0)
(0.985536 -0.0588413 0)
(0.980466 -0.0590711 0)
(0.974171 -0.0581489 0)
(0.969098 -0.0560036 0)
(0.968722 -0.0534015 0)
(0.97166 -0.0510799 0)
(0.973542 -0.0488825 0)
(0.973534 -0.0468361 0)
(0.972833 -0.0450734 0)
(0.971986 -0.0435545 0)
(0.971163 -0.0422615 0)
(1.00826 -0.00178371 0)
(1.009 -0.00625629 0)
(1.01024 -0.0102324 0)
(1.01182 -0.0149119 0)
(1.01358 -0.0197995 0)
(1.01529 -0.0251351 0)
(1.01674 -0.0307464 0)
(1.01771 -0.036552 0)
(1.018 -0.0423636 0)
(1.01745 -0.0480013 0)
(1.016 -0.0532663 0)
(1.01367 -0.0579615 0)
(1.01059 -0.0619159 0)
(1.00692 -0.0650261 0)
(1.0028 -0.067274 0)
(0.998413 -0.0686453 0)
(0.994079 -0.0689497 0)
(0.990199 -0.0678935 0)
(0.987227 -0.0655957 0)
(0.986047 -0.0628089 0)
(0.987404 -0.0604262 0)
(0.989077 -0.0590471 0)
(0.986336 -0.0583308 0)
(0.979165 -0.0574433 0)
(0.972471 -0.0565628 0)
(0.968294 -0.0558141 0)
(0.965558 -0.0549891 0)
(0.963568 -0.0541282 0)
(0.962061 -0.0532579 0)
(1.00956 -0.00184633 0)
(1.01046 -0.00647087 0)
(1.01195 -0.0106236 0)
(1.01387 -0.0155622 0)
(1.01606 -0.0207885 0)
(1.01824 -0.026583 0)
(1.02019 -0.0327882 0)
(1.02163 -0.0393456 0)
(1.02234 -0.0460741 0)
(1.02211 -0.0527797 0)
(1.02086 -0.0592222 0)
(1.01857 -0.0651537 0)
(1.01531 -0.0703639 0)
(1.01117 -0.074701 0)
(1.00634 -0.0780453 0)
(1.001 -0.0803117 0)
(0.995338 -0.0816697 0)
(0.989417 -0.0826974 0)
(0.983262 -0.0838401 0)
(0.976644 -0.0847569 0)
(0.96915 -0.0846668 0)
(0.961895 -0.0830651 0)
(0.958066 -0.0803714 0)
(0.958445 -0.0776716 0)
(0.959223 -0.0750794 0)
(0.958303 -0.0724183 0)
(0.956723 -0.0700278 0)
(0.955145 -0.0679362 0)
(0.953686 -0.0661204 0)
(1.01078 -0.0018817 0)
(1.01183 -0.00658758 0)
(1.01357 -0.0108499 0)
(1.01584 -0.0159645 0)
(1.01846 -0.0214376 0)
(1.02115 -0.0275899 0)
(1.02364 -0.0342842 0)
(1.02565 -0.0414879 0)
(1.02691 -0.0490307 0)
(1.02718 -0.0567212 0)
(1.02629 -0.0643183 0)
(1.02411 -0.0715729 0)
(1.02065 -0.0782441 0)
(1.01599 -0.0841143 0)
(1.0103 -0.0890086 0)
(1.00382 -0.0928214 0)
(0.996831 -0.0954296 0)
(0.989871 -0.0964525 0)
(0.983657 -0.0955734 0)
(0.979071 -0.0932375 0)
(0.977121 -0.0904937 0)
(0.977025 -0.0884502 0)
(0.974431 -0.087384 0)
(0.966923 -0.0862528 0)
(0.958446 -0.0849055 0)
(0.95263 -0.0838131 0)
(0.948716 -0.0826665 0)
(0.945672 -0.0814225 0)
(0.943259 -0.0801723 0)
(1.0119 -0.00189555 0)
(1.01309 -0.00662622 0)
(1.01507 -0.0109421 0)
(1.01769 -0.0161611 0)
(1.02074 -0.0217973 0)
(1.02394 -0.028209 0)
(1.02702 -0.0352817 0)
(1.02966 -0.0430122 0)
(1.03156 -0.0512579 0)
(1.03241 -0.0598606 0)
(1.03197 -0.0686057 0)
(1.03007 -0.0772443 0)
(1.02667 -0.0854829 0)
(1.02185 -0.0930125 0)
(1.01578 -0.099552 0)
(1.00867 -0.104839 0)
(1.00081 -0.108659 0)
(0.992451 -0.111192 0)
(0.983795 -0.113235 0)
(0.974955 -0.11525 0)
(0.965522 -0.116582 0)
(0.95534 -0.116166 0)
(0.946974 -0.113825 0)
(0.943628 -0.110912 0)
(0.94309 -0.108105 0)
(0.941287 -0.104968 0)
(0.938458 -0.101946 0)
(0.935788 -0.0992978 0)
(0.933379 -0.0969447 0)
(1.0129 -0.00189259 0)
(1.01423 -0.00660343 0)
(1.01644 -0.0109277 0)
(1.01939 -0.016192 0)
(1.02286 -0.0219186 0)
(1.02658 -0.0285009 0)
(1.03025 -0.0358495 0)
(1.03356 -0.0439946 0)
(1.03615 -0.0528342 0)
(1.0377 -0.0622529 0)
(1.03791 -0.0720567 0)
(1.03661 -0.0819904 0)
(1.03368 -0.0917326 0)
(1.02911 -0.100929 0)
(1.0229 -0.109248 0)
(1.01514 -0.116413 0)
(1.00601 -0.122215 0)
(0.995933 -0.126413 0)
(0.985916 -0.128459 0)
(0.977315 -0.127991 0)
(0.971379 -0.125786 0)
(0.968426 -0.12353 0)
(0.965206 -0.122388 0)
(0.957047 -0.121397 0)
(0.945642 -0.119732 0)
(0.936668 -0.118269 0)
(0.930792 -0.116857 0)
(0.926153 -0.115158 0)
(0.922384 -0.113413 0)
(1.0138 -0.00187686 0)
(1.01525 -0.00653366 0)
(1.01767 -0.0108309 0)
(1.02093 -0.0160935 0)
(1.0248 -0.0218509 0)
(1.02903 -0.0285289 0)
(1.03329 -0.0360639 0)
(1.03727 -0.0445192 0)
(1.04061 -0.0538323 0)
(1.04297 -0.0639272 0)
(1.04404 -0.0746391 0)
(1.04355 -0.0857436 0)
(1.04129 -0.0969549 0)
(1.03706 -0.107929 0)
(1.03079 -0.118296 0)
(1.02254 -0.127677 0)
(1.01255 -0.135634 0)
(1.00133 -0.141768 0)
(0.989602 -0.146309 0)
(0.977787 -0.1503 0)
(0.965612 -0.153991 0)
(0.952005 -0.155898 0)
(0.938131 -0.154697 0)
(0.929162 -0.151677 0)
(0.926343 -0.14864 0)
(0.923747 -0.145104 0)
(0.919148 -0.141214 0)
(0.914681 -0.137789 0)
(0.910746 -0.1347 0)
(1.01458 -0.00185183 0)
(1.01615 -0.00642947 0)
(1.01877 -0.010673 0)
(1.02232 -0.0158984 0)
(1.02657 -0.0216398 0)
(1.03127 -0.0283531 0)
(1.0361 -0.0359976 0)
(1.04076 -0.0446649 0)
(1.04488 -0.0543286 0)
(1.04812 -0.0649569 0)
(1.05011 -0.0764394 0)
(1.05052 -0.0886138 0)
(1.04905 -0.101246 0)
(1.04544 -0.113995 0)
(1.03958 -0.126409 0)
(1.03143 -0.137987 0)
(1.02108 -0.148212 0)
(1.00885 -0.156657 0)
(0.995621 -0.162926 0)
(0.982898 -0.166335 0)
(0.972242 -0.16652 0)
(0.964666 -0.16481 0)
(0.95907 -0.163761 0)
(0.950097 -0.163596 0)
(0.93524 -0.162286 0)
(0.920935 -0.160459 0)
(0.911609 -0.158876 0)
(0.904579 -0.156686 0)
(0.898659 -0.154202 0)
(1.01528 -0.0018204 0)
(1.01694 -0.00630149 0)
(1.01975 -0.0104724 0)
(1.02356 -0.0156341 0)
(1.02817 -0.0213248 0)
(1.03331 -0.0280258 0)
(1.03869 -0.0357152 0)
(1.044 -0.0445083 0)
(1.04889 -0.0544152 0)
(1.05301 -0.0654535 0)
(1.05596 -0.077575 0)
(1.05738 -0.0906766 0)
(1.05695 -0.104566 0)
(1.05437 -0.118925 0)
(1.04935 -0.133298 0)
(1.04162 -0.147183 0)
(1.03107 -0.160077 0)
(1.01801 -0.171444 0)
(1.0034 -0.180877 0)
(0.988249 -0.188806 0)
(0.97253 -0.196183 0)
(0.954885 -0.202247 0)
(0.934844 -0.204322 0)
(0.917699 -0.201964 0)
(0.909619 -0.198383 0)
(0.905748 -0.194535 0)
(0.898949 -0.189519 0)
(0.891424 -0.184801 0)
(0.885068 -0.180662 0)
(1.0159 -0.0017848 0)
(1.01765 -0.00615837 0)
(1.02062 -0.0102442 0)
(1.02467 -0.0153235 0)
(1.0296 -0.0209382 0)
(1.03515 -0.0275912 0)
(1.04104 -0.0352736 0)
(1.04697 -0.044123 0)
(1.05261 -0.054184 0)
(1.05758 -0.0655178 0)
(1.06153 -0.0781291 0)
(1.0641 -0.091969 0)
(1.06492 -0.106907 0)
(1.06359 -0.122707 0)
(1.05962 -0.13899 0)
(1.0526 -0.155269 0)
(1.04234 -0.170968 0)
(1.02917 -0.185409 0)
(1.01394 -0.197838 0)
(0.997814 -0.207307 0)
(0.982151 -0.212549 0)
(0.968257 -0.213375 0)
(0.95739 -0.212691 0)
(0.946665 -0.213804 0)
(0.929063 -0.214544 0)
(0.90726 -0.212909 0)
(0.891374 -0.211178 0)
(0.880648 -0.20875 0)
(0.87134 -0.205227 0)
(1.01644 -0.00174675 0)
(1.01828 -0.00600699 0)
(1.0214 -0.0100003 0)
(1.02566 -0.0149845 0)
(1.03089 -0.020506 0)
(1.03681 -0.0270852 0)
(1.04317 -0.0347214 0)
(1.04968 -0.0435725 0)
(1.05601 -0.0537109 0)
(1.06184 -0.0652306 0)
(1.06681 -0.0781822 0)
(1.07056 -0.0925791 0)
(1.07268 -0.108377 0)
(1.07269 -0.125445 0)
(1.07002 -0.143484 0)
(1.06418 -0.162019 0)
(1.05486 -0.180463 0)
(1.04212 -0.198156 0)
(1.02652 -0.214352 0)
(1.00877 -0.228551 0)
(0.989186 -0.241438 0)
(0.966945 -0.253672 0)
(0.940886 -0.262697 0)
(0.913769 -0.264291 0)
(0.895128 -0.260466 0)
(0.887073 -0.256266 0)
(0.878128 -0.250623 0)
(0.865866 -0.243937 0)
(0.855501 -0.238286 0)
(1.01693 -0.0017075 0)
(1.01884 -0.00585263 0)
(1.02208 -0.00975022 0)
(1.02654 -0.0146312 0)
(1.03204 -0.0200485 0)
(1.0383 -0.0265363 0)
(1.04509 -0.034098 0)
(1.05214 -0.0429081 0)
(1.05913 -0.0530591 0)
(1.06576 -0.0646701 0)
(1.07171 -0.0778358 0)
(1.07661 -0.0926351 0)
(1.08004 -0.109106 0)
(1.08151 -0.12721 0)
(1.08044 -0.14674 0)
(1.0762 -0.167315 0)
(1.06825 -0.188454 0)
(1.05644 -0.209558 0)
(1.04117 -0.229763 0)
(1.02317 -0.247787 0)
(1.00335 -0.261688 0)
(0.98295 -0.269263 0)
(0.964101 -0.271224 0)
(0.948563 -0.273355 0)
(0.92922 -0.278067 0)
(0.89982 -0.279409 0)
(0.872214 -0.277593 0)
(0.854585 -0.275412 0)
(0.840122 -0.27085 0)
(1.01736 -0.00166801 0)
(1.01935 -0.00569927 0)
(1.0227 -0.009501 0)
(1.02733 -0.0142747 0)
(1.03306 -0.0195816 0)
(1.03964 -0.0259667 0)
(1.04682 -0.0334337 0)
(1.05435 -0.0421704 0)
(1.06196 -0.0522835 0)
(1.06934 -0.0639117 0)
(1.0762 -0.0771891 0)
(1.0822 -0.0922494 0)
(1.08696 -0.109195 0)
(1.09001 -0.12808 0)
(1.0907 -0.148823 0)
(1.08829 -0.171197 0)
(1.08212 -0.194846 0)
(1.07188 -0.219198 0)
(1.05772 -0.243343 0)
(1.03987 -0.266121 0)
(1.01809 -0.28696 0)
(0.991644 -0.307089 0)
(0.96008 -0.326553 0)
(0.923862 -0.339171 0)
(0.889722 -0.339572 0)
(0.86953 -0.334651 0)
(0.857288 -0.329602 0)
(0.839295 -0.321322 0)
(0.821501 -0.313153 0)
(1.01775 -0.00162907 0)
(1.0198 -0.00554986 0)
(1.02325 -0.00925775 0)
(1.02803 -0.0139233 0)
(1.03398 -0.0191174 0)
(1.04083 -0.025393 0)
(1.04837 -0.0327519 0)
(1.05636 -0.0413925 0)
(1.06451 -0.0514312 0)
(1.07257 -0.0630207 0)
(1.08029 -0.0763238 0)
(1.08735 -0.0915156 0)
(1.09342 -0.108754 0)
(1.09803 -0.128189 0)
(1.10052 -0.149877 0)
(1.10012 -0.173748 0)
(1.09611 -0.199585 0)
(1.08798 -0.22692 0)
(1.07556 -0.255006 0)
(1.05874 -0.282766 0)
(1.03739 -0.308318 0)
(1.01219 -0.328362 0)
(0.98545 -0.339489 0)
(0.960764 -0.344257 0)
(0.937684 -0.352715 0)
(0.90412 -0.36267 0)
(0.860791 -0.363984 0)
(0.828104 -0.362063 0)
(0.805456 -0.357745 0)
(1.01809 -0.0015913 0)
(1.0202 -0.00540648 0)
(1.02373 -0.00902399 0)
(1.02865 -0.0135829 0)
(1.0348 -0.018665 0)
(1.0419 -0.024828 0)
(1.04976 -0.0320708 0)
(1.05815 -0.0406006 0)
(1.06681 -0.0505394 0)
(1.0755 -0.0620479 0)
(1.08399 -0.0753061 0)
(1.09205 -0.090522 0)
(1.09935 -0.107903 0)
(1.10546 -0.12769 0)
(1.10974 -0.150058 0)
(1.11147 -0.175081 0)
(1.10988 -0.202721 0)
(1.10428 -0.232685 0)
(1.09423 -0.264356 0)
(1.07946 -0.29674 0)
(1.05904 -0.328254 0)
(1.03151 -0.35845 0)
(0.996455 -0.389844 0)
(0.954015 -0.420705 0)
(0.904906 -0.43772 0)
(0.861956 -0.436226 0)
(0.837529 -0.431488 0)
(0.814539 -0.425165 0)
(0.784667 -0.413574 0)
(1.0184 -0.00155521 0)
(1.02055 -0.00527058 0)
(1.02416 -0.00880213 0)
(1.0292 -0.0132578 0)
(1.03552 -0.0182306 0)
(1.04284 -0.0242814 0)
(1.051 -0.0314044 0)
(1.05975 -0.0398149 0)
(1.06886 -0.0496363 0)
(1.07812 -0.0610333 0)
(1.08733 -0.074194 0)
(1.0963 -0.0893538 0)
(1.10473 -0.10676 0)
(1.11226 -0.126721 0)
(1.11831 -0.14952 0)
(1.12219 -0.175362 0)
(1.12314 -0.204406 0)
(1.12037 -0.236552 0)
(1.11322 -0.271345 0)
(1.10117 -0.308144 0)
(1.08288 -0.345704 0)
(1.05724 -0.381468 0)
(1.02624 -0.410649 0)
(0.992915 -0.427785 0)
(0.960345 -0.438797 0)
(0.924169 -0.459413 0)
(0.869253 -0.476221 0)
(0.809366 -0.47654 0)
(0.768799 -0.473912 0)
(1.01866 -0.00152114 0)
(1.02086 -0.00514313 0)
(1.02454 -0.00859377 0)
(1.02968 -0.0129507 0)
(1.03616 -0.017819 0)
(1.04368 -0.0237599 0)
(1.05209 -0.0307633 0)
(1.06116 -0.0390504 0)
(1.07069 -0.0487435 0)
(1.08046 -0.0600086 0)
(1.09032 -0.0730364 0)
(1.1001 -0.0880808 0)
(1.10958 -0.105418 0)
(1.11843 -0.125405 0)
(1.12617 -0.148417 0)
(1.13216 -0.174786 0)
(1.13566 -0.204834 0)
(1.13588 -0.238679 0)
(1.13201 -0.276065 0)
(1.12333 -0.316613 0)
(1.10842 -0.359365 0)
(1.08509 -0.402451 0)
(1.05175 -0.446341 0)
(1.00793 -0.495599 0)
(0.951924 -0.54491 0)
(0.8842 -0.568329 0)
(0.827599 -0.564825 0)
(0.792484 -0.562502 0)
(0.750319 -0.552703 0)
(1.01889 -0.00148932 0)
(1.02113 -0.00502473 0)
(1.02486 -0.00839991 0)
(1.03011 -0.0126638 0)
(1.03672 -0.0174331 0)
(1.04441 -0.0232685 0)
(1.05305 -0.0301548 0)
(1.06241 -0.0383186 0)
(1.0723 -0.0478779 0)
(1.08254 -0.0589993 0)
(1.09297 -0.0718717 0)
(1.10349 -0.0867577 0)
(1.11392 -0.103954 0)
(1.12399 -0.123851 0)
(1.13331 -0.146904 0)
(1.1413 -0.17355 0)
(1.14727 -0.204241 0)
(1.1505 -0.2393 0)
(1.15015 -0.278712 0)
(1.14529 -0.322306 0)
(1.13435 -0.369727 0)
(1.11502 -0.419982 0)
(1.08641 -0.470354 0)
(1.05067 -0.513539 0)
(1.00911 -0.540361 0)
(0.964619 -0.564361 0)
(0.907413 -0.608005 0)
(0.819735 -0.63242 0)
(0.735733 -0.629195 0)
(1.01909 -0.00145989 0)
(1.02136 -0.00491563 0)
(1.02515 -0.00822103 0)
(1.03048 -0.012398 0)
(1.03721 -0.0170747 0)
(1.04505 -0.0228099 0)
(1.0539 -0.0295838 0)
(1.06351 -0.037627 0)
(1.07372 -0.047052 0)
(1.08436 -0.0580243 0)
(1.09531 -0.0707281 0)
(1.10649 -0.085427 0)
(1.11778 -0.102432 0)
(1.12896 -0.122156 0)
(1.13972 -0.145113 0)
(1.14957 -0.171831 0)
(1.1579 -0.202859 0)
(1.16404 -0.238681 0)
(1.16728 -0.27955 0)
(1.16652 -0.325521 0)
(1.16007 -0.376537 0)
(1.14615 -0.432249 0)
(1.12247 -0.49134 0)
(1.08475 -0.555086 0)
(1.03161 -0.632899 0)
(0.959013 -0.715144 0)
(0.861571 -0.749837 0)
(0.776477 -0.744777 0)
(0.717276 -0.746219 0)
(1.01927 -0.00143288 0)
(1.02157 -0.00481584 0)
(1.0254 -0.00805719 0)
(1.0308 -0.0121537 0)
(1.03764 -0.0167446 0)
(1.04561 -0.0223859 0)
(1.05464 -0.0290534 0)
(1.06448 -0.0369811 0)
(1.07497 -0.0462749 0)
(1.08597 -0.0570978 0)
(1.09737 -0.0696274 0)
(1.10914 -0.0841233 0)
(1.12119 -0.100905 0)
(1.13336 -0.120399 0)
(1.14542 -0.143159 0)
(1.15698 -0.169785 0)
(1.16753 -0.200909 0)
(1.17641 -0.237122 0)
(1.18309 -0.278904 0)
(1.1866 -0.326586 0)
(1.18498 -0.380267 0)
(1.17662 -0.440392 0)
(1.16005 -0.507712 0)
(1.1321 -0.579504 0)
(1.09228 -0.644156 0)
(1.04074 -0.686281 0)
(0.979841 -0.738555 0)
(0.885175 -0.830148 0)
(0.734372 -0.856436 0)
(1.01942 -0.00140829 0)
(1.02175 -0.00472518 0)
(1.02562 -0.00790812 0)
(1.03108 -0.0119309 0)
(1.03801 -0.0164429 0)
(1.0461 -0.0219969 0)
(1.05529 -0.0285651 0)
(1.06532 -0.0363837 0)
(1.07606 -0.0455518 0)
(1.08737 -0.0562291 0)
(1.09918 -0.0685849 0)
(1.11145 -0.0828721 0)
(1.12417 -0.0994121 0)
(1.13723 -0.11864 0)
(1.15045 -0.141133 0)
(1.16356 -0.167544 0)
(1.17613 -0.198575 0)
(1.18757 -0.234894 0)
(1.19745 -0.277112 0)
(1.20511 -0.325851 0)
(1.20855 -0.381463 0)
(1.20601 -0.444521 0)
(1.19754 -0.516725 0)
(1.17918 -0.598135 0)
(1.13878 -0.689505 0)
(1.07729 -0.812493 0)
(0.993312 -0.964259 0)
(0.838755 -1.03307 0)
(0.662635 -1.01952 0)
(1.01955 -0.00138605 0)
(1.0219 -0.00464336 0)
(1.0258 -0.00777338 0)
(1.03133 -0.0117291 0)
(1.03833 -0.0161692 0)
(1.04653 -0.021643 0)
(1.05585 -0.0281193 0)
(1.06606 -0.0358363 0)
(1.07702 -0.0448862 0)
(1.0886 -0.0554244 0)
(1.10076 -0.0676116 0)
(1.11348 -0.0816922 0)
(1.12678 -0.0979844 0)
(1.14061 -0.116927 0)
(1.15487 -0.13911 0)
(1.16936 -0.165223 0)
(1.18375 -0.196021 0)
(1.19754 -0.232236 0)
(1.21036 -0.274543 0)
(1.22178 -0.323734 0)
(1.23029 -0.380536 0)
(1.2339 -0.445536 0)
(1.23256 -0.520746 0)
(1.2253 -0.610703 0)
(1.20517 -0.714977 0)
(1.16756 -0.812062 0)
(1.10619 -0.879075 0)
(1.02208 -1.00493 0)
(0.833204 -1.20401 0)
(1.01967 -0.00136607 0)
(1.02204 -0.00456995 0)
(1.02597 -0.0076523 0)
(1.03154 -0.0115475 0)
(1.03862 -0.0159224 0)
(1.0469 -0.0213231 0)
(1.05635 -0.0277153 0)
(1.06671 -0.0353387 0)
(1.07786 -0.0442787 0)
(1.08968 -0.0546865 0)
(1.10213 -0.0667136 0)
(1.11524 -0.0805945 0)
(1.12905 -0.0966414 0)
(1.14356 -0.115292 0)
(1.15873 -0.137142 0)
(1.17444 -0.162906 0)
(1.19043 -0.193372 0)
(1.20633 -0.229325 0)
(1.22183 -0.271481 0)
(1.2366 -0.320661 0)
(1.24976 -0.377892 0)
(1.25965 -0.444124 0)
(1.26539 -0.520885 0)
(1.26914 -0.613352 0)
(1.26766 -0.725 0)
(1.23462 -0.847611 0)
(1.1707 -1.03248 0)
(1.0957 -1.35674 0)
(0.766176 -1.46935 0)
(0.999028 -0.00400944 0)
(0.99922 -0.00385357 0)
(0.999245 -0.00369621 0)
(0.999085 -0.00353741 0)
(0.998707 -0.00337803 0)
(0.998066 -0.00321964 0)
(0.997114 -0.00306488 0)
(0.995807 -0.00291756 0)
(0.994116 -0.00278249 0)
(0.992041 -0.00266513 0)
(0.989627 -0.00257093 0)
(0.986971 -0.00250451 0)
(0.984223 -0.00246866 0)
(0.981581 -0.00246349 0)
(0.979272 -0.00248589 0)
(0.977516 -0.00252946 0)
(0.976498 -0.00258515 0)
(0.976331 -0.00264234 0)
(0.977032 -0.00269041 0)
(0.996607 -0.00688193 0)
(0.996378 -0.00679141 0)
(0.996299 -0.00669506 0)
(0.996406 -0.0065955 0)
(0.996751 -0.00649338 0)
(0.997405 -0.00638951 0)
(0.998444 -0.00628455 0)
(0.99994 -0.00617866 0)
(1.00194 -0.00607148 0)
(1.00446 -0.00596209 0)
(1.00744 -0.00584926 0)
(1.01075 -0.00573183 0)
(1.0142 -0.00560924 0)
(1.0175 -0.00548215 0)
(1.02036 -0.00535271 0)
(1.02248 -0.00522448 0)
(1.02364 -0.00510174 0)
(1.02369 -0.00498834 0)
(1.02265 -0.00488635 0)
(0.99447 -0.0176753 0)
(0.994551 -0.0173672 0)
(0.994505 -0.0170683 0)
(0.994315 -0.0167756 0)
(0.993954 -0.0164869 0)
(0.993379 -0.0161981 0)
(0.992543 -0.0159037 0)
(0.991396 -0.0155979 0)
(0.989902 -0.0152741 0)
(0.988055 -0.0149256 0)
(0.985888 -0.0145465 0)
(0.983493 -0.014132 0)
(0.981018 -0.0136787 0)
(0.978664 -0.0131852 0)
(0.976656 -0.0126517 0)
(0.975209 -0.0120806 0)
(0.974485 -0.0114761 0)
(0.974559 -0.0108443 0)
(0.975396 -0.0101937 0)
(0.989922 -0.0173907 0)
(0.989836 -0.0170702 0)
(0.989857 -0.0167302 0)
(0.989993 -0.0163758 0)
(0.99027 -0.0160091 0)
(0.990726 -0.0156322 0)
(0.991407 -0.0152472 0)
(0.992361 -0.0148555 0)
(0.993624 -0.0144576 0)
(0.995207 -0.0140527 0)
(0.997077 -0.0136385 0)
(0.999147 -0.013211 0)
(1.00127 -0.0127651 0)
(1.00325 -0.0122955 0)
(1.00486 -0.0117983 0)
(1.00589 -0.0112719 0)
(1.00618 -0.0107185 0)
(1.00566 -0.0101438 0)
(1.00436 -0.00955642 0)
(0.98461 -0.0254921 0)
(0.984323 -0.0248216 0)
(0.983981 -0.0241357 0)
(0.983564 -0.0234335 0)
(0.983039 -0.0227157 0)
(0.982363 -0.021982 0)
(0.981483 -0.0212322 0)
(0.980343 -0.0204671 0)
(0.97889 -0.0196887 0)
(0.977094 -0.0189012 0)
(0.974959 -0.0181118 0)
(0.972543 -0.0173302 0)
(0.96997 -0.0165687 0)
(0.967427 -0.01584 0)
(0.965149 -0.0151546 0)
(0.96338 -0.0145184 0)
(0.962328 -0.0139294 0)
(0.962116 -0.0133778 0)
(0.962747 -0.0128466 0)
(0.977329 -0.031409 0)
(0.976841 -0.0308558 0)
(0.976449 -0.0302792 0)
(0.976159 -0.0296846 0)
(0.975991 -0.0290743 0)
(0.975978 -0.0284512 0)
(0.976168 -0.0278186 0)
(0.976617 -0.027179 0)
(0.977384 -0.0265331 0)
(0.978513 -0.0258784 0)
(0.980018 -0.0252078 0)
(0.981858 -0.0245093 0)
(0.983925 -0.0237657 0)
(0.986032 -0.0229576 0)
(0.987931 -0.0220666 0)
(0.989345 -0.0210815 0)
(0.99002 -0.0200022 0)
(0.989788 -0.0188435 0)
(0.988612 -0.0176334 0)
(0.97042 -0.0411497 0)
(0.969718 -0.0401004 0)
(0.969011 -0.0390231 0)
(0.96829 -0.0379165 0)
(0.967535 -0.0367808 0)
(0.96671 -0.0356153 0)
(0.965767 -0.0344188 0)
(0.964637 -0.0331914 0)
(0.963243 -0.0319347 0)
(0.961503 -0.0306543 0)
(0.959355 -0.0293612 0)
(0.956779 -0.0280736 0)
(0.953832 -0.0268168 0)
(0.950665 -0.025621 0)
(0.947539 -0.0245166 0)
(0.944789 -0.0235267 0)
(0.942775 -0.0226593 0)
(0.941794 -0.021902 0)
(0.941991 -0.0212215 0)
(0.96087 -0.0524083 0)
(0.959838 -0.0515628 0)
(0.958882 -0.0506857 0)
(0.958005 -0.0497823 0)
(0.957223 -0.0488532 0)
(0.956566 -0.0479012 0)
(0.95608 -0.0469301 0)
(0.955832 -0.0459446 0)
(0.955908 -0.0449485 0)
(0.956404 -0.0439433 0)
(0.957409 -0.042925 0)
(0.958974 -0.0418815 0)
(0.961077 -0.0407901 0)
(0.963584 -0.0396178 0)
(0.966232 -0.0383259 0)
(0.968639 -0.0368782 0)
(0.970368 -0.0352538 0)
(0.971022 -0.0334578 0)
(0.970356 -0.0315264 0)
(0.952395 -0.0645431 0)
(0.951195 -0.0630429 0)
(0.950013 -0.0614958 0)
(0.948852 -0.0599032 0)
(0.94771 -0.0582676 0)
(0.946569 -0.0565898 0)
(0.945399 -0.0548692 0)
(0.944145 -0.0531045 0)
(0.942723 -0.0512939 0)
(0.94102 -0.0494368 0)
(0.938906 -0.0475364 0)
(0.936257 -0.0456042 0)
(0.933 -0.0436633 0)
(0.929172 -0.0417506 0)
(0.924973 -0.0399141 0)
(0.920792 -0.0382039 0)
(0.917172 -0.0366577 0)
(0.914693 -0.0352844 0)
(0.913804 -0.0340544 0)
(0.941287 -0.0789475 0)
(0.939535 -0.0777253 0)
(0.937869 -0.0764501 0)
(0.936291 -0.075129 0)
(0.934811 -0.0737634 0)
(0.933446 -0.0723563 0)
(0.932226 -0.0709121 0)
(0.931201 -0.0694365 0)
(0.930444 -0.0679361 0)
(0.930063 -0.0664174 0)
(0.930188 -0.0648845 0)
(0.930963 -0.0633344 0)
(0.932493 -0.0617514 0)
(0.934785 -0.0601014 0)
(0.937675 -0.0583301 0)
(0.940776 -0.0563697 0)
(0.943498 -0.0541553 0)
(0.945158 -0.0516499 0)
(0.945175 -0.0488669 0)
(0.931263 -0.0948715 0)
(0.929314 -0.0928759 0)
(0.927409 -0.0907989 0)
(0.925563 -0.0886429 0)
(0.923779 -0.0864094 0)
(0.922057 -0.0840983 0)
(0.920381 -0.0817079 0)
(0.918717 -0.0792352 0)
(0.917002 -0.0766754 0)
(0.91513 -0.0740218 0)
(0.912948 -0.0712677 0)
(0.910259 -0.06841 0)
(0.906857 -0.0654568 0)
(0.90259 -0.0624351 0)
(0.897467 -0.0593978 0)
(0.891768 -0.0564214 0)
(0.886102 -0.0535915 0)
(0.881342 -0.050974 0)
(0.878387 -0.0485848 0)
(0.919288 -0.111676 0)
(0.916504 -0.10991 0)
(0.913828 -0.108033 0)
(0.911256 -0.106053 0)
(0.90879 -0.103975 0)
(0.906436 -0.101804 0)
(0.904209 -0.099546 0)
(0.902129 -0.0972093 0)
(0.900241 -0.0948023 0)
(0.898616 -0.0923364 0)
(0.897377 -0.0898252 0)
(0.896695 -0.0872828 0)
(0.896779 -0.0847178 0)
(0.897818 -0.0821233 0)
(0.899874 -0.0794653 0)
(0.90275 -0.0766745 0)
(0.905891 -0.0736538 0)
(0.908411 -0.0703082 0)
(0.909325 -0.0665925 0)
(0.907245 -0.131912 0)
(0.90402 -0.1292 0)
(0.90086 -0.126345 0)
(0.897786 -0.123354 0)
(0.894814 -0.120225 0)
(0.89195 -0.116957 0)
(0.889192 -0.113549 0)
(0.886529 -0.110001 0)
(0.883928 -0.106313 0)
(0.881329 -0.102483 0)
(0.878624 -0.098511 0)
(0.87564 -0.0943927 0)
(0.872134 -0.0901283 0)
(0.867823 -0.0857299 0)
(0.86248 -0.0812359 0)
(0.856098 -0.0767249 0)
(0.84909 -0.0723154 0)
(0.842403 -0.0681385 0)
(0.837351 -0.0642842 0)
(0.893832 -0.151693 0)
(0.889468 -0.149055 0)
(0.885251 -0.146196 0)
(0.881184 -0.143131 0)
(0.877266 -0.13988 0)
(0.873506 -0.136467 0)
(0.869916 -0.132912 0)
(0.866513 -0.129238 0)
(0.863326 -0.125469 0)
(0.860398 -0.121628 0)
(0.857811 -0.11774 0)
(0.855701 -0.113831 0)
(0.854276 -0.109929 0)
(0.853809 -0.106053 0)
(0.854563 -0.102202 0)
(0.856635 -0.0983278 0)
(0.85972 -0.0943199 0)
(0.862943 -0.0900185 0)
(0.86496 -0.0852777 0)
(0.879356 -0.17679 0)
(0.874108 -0.173008 0)
(0.869008 -0.168988 0)
(0.864079 -0.164747 0)
(0.859364 -0.16029 0)
(0.854884 -0.155615 0)
(0.850651 -0.150729 0)
(0.84667 -0.145636 0)
(0.842928 -0.140345 0)
(0.839395 -0.134863 0)
(0.836005 -0.129196 0)
(0.832637 -0.123348 0)
(0.829088 -0.117322 0)
(0.82505 -0.111122 0)
(0.820134 -0.104768 0)
(0.814006 -0.0983246 0)
(0.806653 -0.0919265 0)
(0.798756 -0.0857777 0)
(0.791856 -0.0800932 0)
(0.863779 -0.201579 0)
(0.85703 -0.197602 0)
(0.850514 -0.193174 0)
(0.844306 -0.188363 0)
(0.83839 -0.183197 0)
(0.832792 -0.177739 0)
(0.827531 -0.172033 0)
(0.82262 -0.166131 0)
(0.81808 -0.160085 0)
(0.813932 -0.153948 0)
(0.810222 -0.147777 0)
(0.80703 -0.14163 0)
(0.804504 -0.135569 0)
(0.802889 -0.129657 0)
(0.802532 -0.123943 0)
(0.803794 -0.11844 0)
(0.80679 -0.113072 0)
(0.810978 -0.107637 0)
(0.814854 -0.101829 0)
(0.846434 -0.232842 0)
(0.83799 -0.227343 0)
(0.829951 -0.22144 0)
(0.822246 -0.215071 0)
(0.814993 -0.208303 0)
(0.808238 -0.201137 0)
(0.802004 -0.193614 0)
(0.796329 -0.185774 0)
(0.791216 -0.177659 0)
(0.786666 -0.169312 0)
(0.782647 -0.160774 0)
(0.779087 -0.152079 0)
(0.775844 -0.143254 0)
(0.772658 -0.134314 0)
(0.769104 -0.125273 0)
(0.764598 -0.116168 0)
(0.75858 -0.107115 0)
(0.751023 -0.0983592 0)
(0.743166 -0.090304 0)
(0.82778 -0.265374 0)
(0.817147 -0.259362 0)
(0.806832 -0.252312 0)
(0.797145 -0.244546 0)
(0.788098 -0.236062 0)
(0.779725 -0.226988 0)
(0.772116 -0.217431 0)
(0.765283 -0.207487 0)
(0.759269 -0.19728 0)
(0.754081 -0.186923 0)
(0.749737 -0.176547 0)
(0.746257 -0.166285 0)
(0.743698 -0.156278 0)
(0.742191 -0.146675 0)
(0.742005 -0.137624 0)
(0.74358 -0.129256 0)
(0.747439 -0.121626 0)
(0.753733 -0.114626 0)
(0.761391 -0.107788 0)
(0.807055 -0.305737 0)
(0.793193 -0.29743 0)
(0.780179 -0.288364 0)
(0.767913 -0.278233 0)
(0.756498 -0.267186 0)
(0.746167 -0.255342 0)
(0.736915 -0.242776 0)
(0.728873 -0.229663 0)
(0.722055 -0.216128 0)
(0.716508 -0.202329 0)
(0.712214 -0.188403 0)
(0.709141 -0.174483 0)
(0.707184 -0.16068 0)
(0.706144 -0.14708 0)
(0.705648 -0.133737 0)
(0.705043 -0.120682 0)
(0.703347 -0.107997 0)
(0.699505 -0.0958386 0)
(0.693354 -0.0847823 0)
(0.78477 -0.349562 0)
(0.767126 -0.340444 0)
(0.750295 -0.329232 0)
(0.73443 -0.316389 0)
(0.720053 -0.302212 0)
(0.707031 -0.286738 0)
(0.695692 -0.270324 0)
(0.686034 -0.253129 0)
(0.678179 -0.235433 0)
(0.672123 -0.217479 0)
(0.667891 -0.199539 0)
(0.665443 -0.181887 0)
(0.664753 -0.164815 0)
(0.6658 -0.148627 0)
(0.668653 -0.13365 0)
(0.673572 -0.120221 0)
(0.681148 -0.108594 0)
(0.692168 -0.099077 0)
(0.707112 -0.0912165 0)
(0.760089 -0.403435 0)
(0.737352 -0.391363 0)
(0.715291 -0.376857 0)
(0.695281 -0.36052 0)
(0.676766 -0.341918 0)
(0.660561 -0.321814 0)
(0.646566 -0.300274 0)
(0.635068 -0.277739 0)
(0.626063 -0.254529 0)
(0.619662 -0.230986 0)
(0.615821 -0.207446 0)
(0.614531 -0.18423 0)
(0.615689 -0.161637 0)
(0.619127 -0.13993 0)
(0.624514 -0.11931 0)
(0.631235 -0.0998688 0)
(0.638139 -0.0818155 0)
(0.643587 -0.0649849 0)
(0.64435 -0.0500376 0)
(0.735513 -0.464218 0)
(0.704471 -0.449484 0)
(0.676685 -0.432186 0)
(0.650231 -0.410693 0)
(0.627006 -0.386936 0)
(0.606607 -0.3607 0)
(0.589582 -0.332739 0)
(0.575867 -0.303533 0)
(0.565679 -0.273503 0)
(0.558908 -0.243142 0)
(0.555632 -0.212873 0)
(0.555758 -0.183143 0)
(0.559236 -0.154427 0)
(0.565965 -0.127247 0)
(0.575857 -0.1022 0)
(0.588924 -0.0800737 0)
(0.605643 -0.0613056 0)
(0.626256 -0.0473633 0)
(0.654599 -0.0382373 0)
(0.705303 -0.535921 0)
(0.66782 -0.519537 0)
(0.630473 -0.495583 0)
(0.597553 -0.468481 0)
(0.568249 -0.437352 0)
(0.543442 -0.403379 0)
(0.522976 -0.367532 0)
(0.50719 -0.330161 0)
(0.495717 -0.292062 0)
(0.48879 -0.25363 0)
(0.486179 -0.215355 0)
(0.487959 -0.177693 0)
(0.494077 -0.141111 0)
(0.504505 -0.106125 0)
(0.519101 -0.0733047 0)