/*--------------------------------*- C++ -*----------------------------------*\
  =========                 |
  \\      /  F ield         | OpenFOAM: The Open Source CFD Toolbox
   \\    /   O peration     | Website:  https://openfoam.org
    \\  /    A nd           | Version:  10
     \\/     M anipulation  |
\*---------------------------------------------------------------------------*/
FoamFile
{
    format      ascii;
    class       volVectorField;
    location    "0";
    object      U;
}
// * * * * * * * * * * * * * * * * * * * * * * * * * * * * * * * * * * * * * //

dimensions      [0 1 -1 0 0 0 0];

internalField   nonuniform List<vector> 
18483
(
(0.999997 -0.000188474 0)
(0.999997 -0.000674769 0)
(0.999997 -0.00108183 0)
(0.999997 -0.00152985 0)
(0.999997 -0.00196792 0)
(0.999997 -0.00240354 0)
(0.999997 -0.0028194 0)
(0.999996 -0.00320281 0)
(0.999994 -0.00354231 0)
(0.999991 -0.0038317 0)
(0.999985 -0.00407207 0)
(0.999978 -0.00427505 0)
(0.99997 -0.00446015 0)
(0.999961 -0.00468125 0)
(0.999945 -0.00499618 0)
(0.999905 -0.00543185 0)
(0.99976 -0.00593367 0)
(0.999188 -0.00637851 0)
(0.997438 -0.00666188 0)
(0.993838 -0.00668884 0)
(0.98936 -0.00648077 0)
(0.986778 -0.00619127 0)
(0.987652 -0.00589213 0)
(0.99066 -0.00557321 0)
(0.993799 -0.00526596 0)
(0.996157 -0.00500349 0)
(0.997688 -0.00479192 0)
(0.998615 -0.0046263 0)
(0.999156 -0.00449774 0)
(1.00058 -0.000587688 0)
(1.00061 -0.00208228 0)
(1.00068 -0.00331825 0)
(1.00076 -0.00467026 0)
(1.00084 -0.00597085 0)
(1.00091 -0.00725159 0)
(1.00095 -0.00846125 0)
(1.00096 -0.0095649 0)
(1.00093 -0.0105254 0)
(1.00087 -0.0113138 0)
(1.00078 -0.0119146 0)
(1.0007 -0.012344 0)
(1.00066 -0.0126096 0)
(1.00071 -0.012624 0)
(1.00085 -0.0122865 0)
(1.00102 -0.0115331 0)
(1.00115 -0.0104565 0)
(1.00138 -0.00931563 0)
(1.00233 -0.00835712 0)
(1.00482 -0.00785823 0)
(1.00839 -0.00793551 0)
(1.01048 -0.00830101 0)
(1.00919 -0.00861835 0)
(1.00581 -0.00883502 0)
(1.00256 -0.00895045 0)
(1.00033 -0.00895893 0)
(0.999032 -0.00888831 0)
(0.998325 -0.00876797 0)
(0.99795 -0.00862171 0)
(1.00179 -0.000993385 0)
(1.00187 -0.00348792 0)
(1.00205 -0.0055302 0)
(1.00225 -0.00775327 0)
(1.00245 -0.00986192 0)
(1.0026 -0.0119232 0)
(1.00269 -0.0138558 0)
(1.00266 -0.0156091 0)
(1.00252 -0.0171248 0)
(1.00226 -0.0183628 0)
(1.00188 -0.0192905 0)
(1.00143 -0.01989 0)
(1.00095 -0.0201677 0)
(1.00047 -0.0201594 0)
(0.999898 -0.0200516 0)
(0.999183 -0.020134 0)
(0.998339 -0.020454 0)
(0.997333 -0.0208155 0)
(0.995841 -0.0210042 0)
(0.993377 -0.0208032 0)
(0.990173 -0.0200654 0)
(0.987849 -0.0189798 0)
(0.987877 -0.0179642 0)
(0.98961 -0.0171116 0)
(0.991445 -0.0163494 0)
(0.992668 -0.0156884 0)
(0.99333 -0.0151259 0)
(0.993643 -0.0146515 0)
(0.993765 -0.0142551 0)
(1.00332 -0.00137609 0)
(1.00346 -0.00479781 0)
(1.00377 -0.00758352 0)
(1.0041 -0.0106081 0)
(1.00443 -0.0134524 0)
(1.00468 -0.0162292 0)
(1.0048 -0.0188319 0)
(1.00473 -0.0212058 0)
(1.00445 -0.0232776 0)
(1.00394 -0.0249959 0)
(1.00324 -0.0263118 0)
(1.00237 -0.0271964 0)
(1.00139 -0.027697 0)
(1.00034 -0.0279082 0)
(0.999259 -0.0278554 0)
(0.998258 -0.0273094 0)
(0.997434 -0.02606 0)
(0.9969 -0.0243101 0)
(0.997042 -0.0224954 0)
(0.998504 -0.0210235 0)
(1.00117 -0.0201468 0)
(1.00315 -0.0198482 0)
(1.00243 -0.0197115 0)
(0.999493 -0.019496 0)
(0.996321 -0.0192765 0)
(0.993993 -0.0190425 0)
(0.992524 -0.0187796 0)
(0.991638 -0.0184967 0)
(0.991098 -0.0182039 0)
(1.00497 -0.00171443 0)
(1.00519 -0.00594642 0)
(1.00563 -0.00938494 0)
(1.0061 -0.0131169 0)
(1.00658 -0.0166149 0)
(1.00695 -0.0200425 0)
(1.00714 -0.0232707 0)
(1.00706 -0.0262456 0)
(1.00668 -0.0288735 0)
(1.00598 -0.0310824 0)
(1.00499 -0.0328161 0)
(1.00372 -0.0340528 0)
(1.00225 -0.0348234 0)
(1.00063 -0.0351381 0)
(0.998953 -0.035007 0)
(0.997204 -0.0346099 0)
(0.995294 -0.0342702 0)
(0.99327 -0.0341217 0)
(0.991201 -0.0339074 0)
(0.98891 -0.0332563 0)
(0.986194 -0.0319957 0)
(0.983671 -0.0301821 0)
(0.982684 -0.028283 0)
(0.983383 -0.0266788 0)
(0.984493 -0.0252647 0)
(0.985133 -0.0239921 0)
(0.985281 -0.022878 0)
(0.985149 -0.0219107 0)
(0.984895 -0.0210793 0)
(1.00671 -0.00200504 0)
(1.00701 -0.00692605 0)
(1.00757 -0.0109259 0)
(1.0082 -0.0152737 0)
(1.00885 -0.0193508 0)
(1.00937 -0.0233736 0)
(1.00966 -0.0271939 0)
(1.00962 -0.0307624 0)
(1.00917 -0.0339735 0)
(1.00827 -0.0367475 0)
(1.00693 -0.0390314 0)
(1.00519 -0.0407995 0)
(1.00314 -0.0420484 0)
(1.00087 -0.0427818 0)
(0.998471 -0.0430589 0)
(0.99599 -0.0429697 0)
(0.993541 -0.0423824 0)
(0.991246 -0.0410604 0)
(0.989342 -0.0391204 0)
(0.988426 -0.0369805 0)
(0.989053 -0.0350904 0)
(0.990411 -0.0337727 0)
(0.990428 -0.0328293 0)
(0.988269 -0.0318848 0)
(0.985251 -0.0310176 0)
(0.982715 -0.0302884 0)
(0.980918 -0.0296238 0)
(0.979658 -0.0289988 0)
(0.978744 -0.0284067 0)
(1.00852 -0.00225435 0)
(1.00891 -0.00776083 0)
(1.00961 -0.0122451 0)
(1.01041 -0.0171334 0)
(1.01124 -0.0217303 0)
(1.01194 -0.0263061 0)
(1.01236 -0.0306989 0)
(1.01239 -0.0348725 0)
(1.01191 -0.0387197 0)
(1.01087 -0.0421567 0)
(1.00928 -0.0451052 0)
(1.0072 -0.0474925 0)
(1.00475 -0.0492657 0)
(1.00206 -0.0504052 0)
(0.999182 -0.0508982 0)
(0.996174 -0.0508093 0)
(0.992988 -0.0504104 0)
(0.989474 -0.0500423 0)
(0.985644 -0.0497708 0)
(0.981679 -0.0492883 0)
(0.977632 -0.0482188 0)
(0.973721 -0.0463911 0)
(0.971067 -0.044151 0)
(0.970564 -0.0420485 0)
(0.971272 -0.0401059 0)
(0.971783 -0.0382319 0)
(0.971755 -0.0365204 0)
(0.971403 -0.0350113 0)
(0.970925 -0.0337061 0)
(1.01038 -0.00246938 0)
(1.01085 -0.00847694 0)
(1.01169 -0.0133837 0)
(1.01267 -0.0187511 0)
(1.01371 -0.0238194 0)
(1.01461 -0.0289125 0)
(1.01522 -0.0338601 0)
(1.01538 -0.038643 0)
(1.01497 -0.0431502 0)
(1.01391 -0.0472845 0)
(1.0122 -0.050933 0)
(1.00989 -0.0539916 0)
(1.00706 -0.0563939 0)
(1.00378 -0.0581302 0)
(1.00012 -0.059223 0)
(0.996142 -0.0597587 0)
(0.991907 -0.0597941 0)
(0.987529 -0.0590829 0)
(0.983292 -0.0574326 0)
(0.979891 -0.055182 0)
(0.978213 -0.0529294 0)
(0.978172 -0.0511637 0)
(0.977931 -0.0498287 0)
(0.975631 -0.0484614 0)
(0.971824 -0.047096 0)
(0.968323 -0.0459483 0)
(0.965777 -0.0449279 0)
(0.963937 -0.0439664 0)
(0.962544 -0.0430562 0)
(1.01221 -0.00265447 0)
(1.01277 -0.00909095 0)
(1.01376 -0.0143668 0)
(1.01493 -0.0201587 0)
(1.01619 -0.0256539 0)
(1.01732 -0.0312279 0)
(1.01816 -0.0367046 0)
(1.01851 -0.0420829 0)
(1.01825 -0.0472497 0)
(1.01726 -0.0521072 0)
(1.01548 -0.0565402 0)
(1.01291 -0.0604441 0)
(1.00961 -0.0637323 0)
(1.00568 -0.0663461 0)
(1.0013 -0.0682172 0)
(0.996603 -0.0692336 0)
(0.991685 -0.0694121 0)
(0.986493 -0.0690975 0)
(0.980979 -0.068806 0)
(0.975357 -0.0686383 0)
(0.969604 -0.0681184 0)
(0.963526 -0.0667385 0)
(0.958143 -0.0645809 0)
(0.95539 -0.0623076 0)
(0.955171 -0.0601296 0)
(0.955372 -0.057845 0)
(0.954954 -0.0556089 0)
(0.954157 -0.0535793 0)
(0.953256 -0.0517838 0)
(1.01398 -0.00281174 0)
(1.01463 -0.00961099 0)
(1.01576 -0.0152057 0)
(1.01713 -0.02137 0)
(1.01863 -0.0272474 0)
(1.02001 -0.0332618 0)
(1.02111 -0.0392335 0)
(1.02171 -0.0451822 0)
(1.02165 -0.0510032 0)
(1.02079 -0.0566149 0)
(1.01903 -0.0619102 0)
(1.01636 -0.066769 0)
(1.01282 -0.0710436 0)
(1.00855 -0.0745823 0)
(1.00366 -0.0772613 0)
(0.998244 -0.0790155 0)
(0.992293 -0.0799293 0)
(0.985935 -0.0801168 0)
(0.979599 -0.0794075 0)
(0.973999 -0.0776528 0)
(0.969975 -0.0752936 0)
(0.968041 -0.0731052 0)
(0.966963 -0.0714063 0)
(0.963988 -0.0697073 0)
(0.958487 -0.0678361 0)
(0.952919 -0.066223 0)
(0.948857 -0.0648367 0)
(0.94593 -0.0634938 0)
(0.943666 -0.0621973 0)
(1.01567 -0.00294239 0)
(1.01641 -0.0100414 0)
(1.01769 -0.015906 0)
(1.01925 -0.0223909 0)
(1.02098 -0.0286039 0)
(1.02264 -0.0350133 0)
(1.02402 -0.0414382 0)
(1.02491 -0.0479204 0)
(1.02513 -0.0543687 0)
(1.02452 -0.060719 0)
(1.02296 -0.0668663 0)
(1.02041 -0.0726788 0)
(1.01688 -0.0779915 0)
(1.01236 -0.0826392 0)
(1.0069 -0.0865032 0)
(1.00061 -0.0894953 0)
(0.993677 -0.0915142 0)
(0.986394 -0.0925915 0)
(0.978999 -0.0931141 0)
(0.971543 -0.0935912 0)
(0.963752 -0.0939173 0)
(0.955024 -0.0933152 0)
(0.946005 -0.091411 0)
(0.939713 -0.0889441 0)
(0.937768 -0.0865289 0)
(0.93744 -0.0838438 0)
(0.936257 -0.0809725 0)
(0.934501 -0.0783046 0)
(0.932719 -0.0759097 0)
(1.01726 -0.00304782 0)
(1.01809 -0.0103866 0)
(1.0195 -0.0164736 0)
(1.02126 -0.0232279 0)
(1.02324 -0.0297284 0)
(1.02517 -0.036484 0)
(1.02686 -0.0433134 0)
(1.02808 -0.0502787 0)
(1.02864 -0.057301 0)
(1.02838 -0.0643339 0)
(1.02714 -0.0712888 0)
(1.02483 -0.0780587 0)
(1.02137 -0.0845071 0)
(1.01669 -0.0904632 0)
(1.01085 -0.0957261 0)
(1.00401 -0.100072 0)
(0.996388 -0.103319 0)
(0.988232 -0.105461 0)
(0.979834 -0.106454 0)
(0.971713 -0.106028 0)
(0.964726 -0.104183 0)
(0.959994 -0.101738 0)
(0.957385 -0.0997127 0)
(0.953628 -0.0979053 0)
(0.945962 -0.0956555 0)
(0.937069 -0.0935186 0)
(0.930485 -0.0917824 0)
(0.925893 -0.090035 0)
(0.922293 -0.0882657 0)
(1.01873 -0.00313017 0)
(1.01965 -0.0106538 0)
(1.0212 -0.0169182 0)
(1.02315 -0.0238929 0)
(1.02537 -0.0306336 0)
(1.02758 -0.0376855 0)
(1.02959 -0.0448676 0)
(1.03116 -0.052258 0)
(1.03211 -0.0597904 0)
(1.03223 -0.0674413 0)
(1.03139 -0.0751546 0)
(1.02942 -0.082862 0)
(1.02621 -0.0904505 0)
(1.02169 -0.097733 0)
(1.01583 -0.10446 0)
(1.00869 -0.110393 0)
(1.00042 -0.115362 0)
(0.991319 -0.119282 0)
(0.981712 -0.12219 0)
(0.971756 -0.124465 0)
(0.961252 -0.126416 0)
(0.949392 -0.127458 0)
(0.936014 -0.126556 0)
(0.924588 -0.124009 0)
(0.919468 -0.121205 0)
(0.918392 -0.118125 0)
(0.916266 -0.114439 0)
(0.912961 -0.110891 0)
(0.909783 -0.107729 0)
(1.02009 -0.00319237 0)
(1.02108 -0.0108523 0)
(1.02278 -0.017254 0)
(1.02491 -0.0244044 0)
(1.02736 -0.0313406 0)
(1.02986 -0.038641 0)
(1.03218 -0.0461238 0)
(1.03412 -0.0538804 0)
(1.03546 -0.0618564 0)
(1.03602 -0.0700524 0)
(1.03564 -0.0784427 0)
(1.03417 -0.0869935 0)
(1.03148 -0.0956258 0)
(1.0274 -0.10419 0)
(1.02178 -0.112476 0)
(1.01457 -0.120239 0)
(1.00594 -0.127188 0)
(0.996247 -0.132996 0)
(0.985768 -0.137297 0)
(0.974839 -0.139598 0)
(0.964245 -0.139511 0)
(0.955484 -0.137566 0)
(0.949964 -0.13541 0)
(0.945179 -0.133964 0)
(0.935497 -0.132077 0)
(0.921918 -0.129613 0)
(0.911148 -0.12763 0)
(0.904097 -0.1256 0)
(0.898548 -0.123263 0)
(1.02134 -0.00323774 0)
(1.02241 -0.0109932 0)
(1.02423 -0.0174973 0)
(1.02654 -0.0247841 0)
(1.02922 -0.0318755 0)
(1.03199 -0.03938 0)
(1.03463 -0.0471143 0)
(1.03692 -0.0551795 0)
(1.03867 -0.0635305 0)
(1.0397 -0.072186 0)
(1.03985 -0.0811437 0)
(1.039 -0.0904096 0)
(1.03696 -0.0999681 0)
(1.03349 -0.109749 0)
(1.02836 -0.119591 0)
(1.02146 -0.129226 0)
(1.0129 -0.138295 0)
(1.00285 -0.146426 0)
(0.991389 -0.153331 0)
(0.978646 -0.159079 0)
(0.964736 -0.164215 0)
(0.949205 -0.168627 0)
(0.931084 -0.170675 0)
(0.912772 -0.169159 0)
(0.901527 -0.165893 0)
(0.898541 -0.162423 0)
(0.895508 -0.157872 0)
(0.889846 -0.152986 0)
(0.884445 -0.148724 0)
(1.02248 -0.00326959 0)
(1.02362 -0.0110874 0)
(1.02556 -0.017665 0)
(1.02804 -0.0250551 0)
(1.03094 -0.032266 0)
(1.03397 -0.039935 0)
(1.03692 -0.0478758 0)
(1.03956 -0.0561956 0)
(1.04171 -0.0648547 0)
(1.04321 -0.0738839 0)
(1.04391 -0.083301 0)
(1.0437 -0.0931563 0)
(1.04237 -0.103505 0)
(1.03968 -0.114358 0)
(1.03535 -0.125621 0)
(1.02917 -0.137074 0)
(1.02107 -0.148386 0)
(1.01106 -0.159119 0)
(0.999191 -0.168657 0)
(0.985709 -0.176105 0)
(0.971363 -0.180321 0)
(0.95763 -0.180827 0)
(0.947035 -0.179275 0)
(0.939871 -0.178591 0)
(0.92889 -0.178411 0)
(0.909834 -0.176519 0)
(0.891879 -0.174347 0)
(0.880631 -0.172322 0)
(0.872081 -0.169336 0)
(1.02352 -0.00329096 0)
(1.02472 -0.0111452 0)
(1.02678 -0.0177731 0)
(1.02942 -0.0252389 0)
(1.03252 -0.0325391 0)
(1.0358 -0.0403384 0)
(1.03904 -0.0484459 0)
(1.04201 -0.0569721 0)
(1.04455 -0.0658799 0)
(1.04649 -0.0752068 0)
(1.04774 -0.0849857 0)
(1.04816 -0.095303 0)
(1.04763 -0.106274 0)
(1.04589 -0.117992 0)
(1.04262 -0.130473 0)
(1.0375 -0.143613 0)
(1.0303 -0.157128 0)
(1.02087 -0.170531 0)
(1.00902 -0.18317 0)
(0.994556 -0.194498 0)
(0.977516 -0.204782 0)
(0.957933 -0.214755 0)
(0.935025 -0.223062 0)
(0.908945 -0.225973 0)
(0.887343 -0.223331 0)
(0.87844 -0.219404 0)
(0.874225 -0.214487 0)
(0.86535 -0.207851 0)
(0.856022 -0.201859 0)
(1.02447 -0.00330444 0)
(1.02573 -0.0111755 0)
(1.0279 -0.0178356 0)
(1.03068 -0.0253549 0)
(1.03398 -0.0327194 0)
(1.03749 -0.0406204 0)
(1.041 -0.0488604 0)
(1.04429 -0.0575516 0)
(1.04718 -0.0666573 0)
(1.04955 -0.0762157 0)
(1.05131 -0.0862657 0)
(1.05239 -0.0969157 0)
(1.05269 -0.108331 0)
(1.05199 -0.120698 0)
(1.04994 -0.134162 0)
(1.04616 -0.14876 0)
(1.04029 -0.164309 0)
(1.03197 -0.180394 0)
(1.02075 -0.196385 0)
(1.00634 -0.211278 0)
(0.989135 -0.223374 0)
(0.970584 -0.230532 0)
(0.953273 -0.232393 0)
(0.940539 -0.232817 0)
(0.928094 -0.235702 0)
(0.90469 -0.237254 0)
(0.87566 -0.235501 0)
(0.855923 -0.233763 0)
(0.842513 -0.230448 0)
(1.02533 -0.00331213 0)
(1.02665 -0.0111857 0)
(1.02892 -0.0178642 0)
(1.03184 -0.0254194 0)
(1.03532 -0.0328283 0)
(1.03905 -0.0408073 0)
(1.0428 -0.0491503 0)
(1.04639 -0.0579712 0)
(1.04962 -0.0672318 0)
(1.05239 -0.0769643 0)
(1.05464 -0.0872047 0)
(1.05634 -0.0980728 0)
(1.05745 -0.109775 0)
(1.05779 -0.122584 0)
(1.05704 -0.136769 0)
(1.05481 -0.15252 0)
(1.05065 -0.169826 0)
(1.04398 -0.188399 0)
(1.03413 -0.207656 0)
(1.02041 -0.226666 0)
(1.00234 -0.244624 0)
(0.979732 -0.262226 0)
(0.952465 -0.280133 0)
(0.919551 -0.294051 0)
(0.884412 -0.297367 0)
(0.861409 -0.293459 0)
(0.852732 -0.288953 0)
(0.840555 -0.281474 0)
(0.824185 -0.272775 0)
(1.02612 -0.00331563 0)
(1.02749 -0.0111816 0)
(1.02985 -0.0178685 0)
(1.03289 -0.0254455 0)
(1.03655 -0.0328832 0)
(1.04047 -0.0409211 0)
(1.04446 -0.0493422 0)
(1.04832 -0.0582634 0)
(1.05187 -0.0676431 0)
(1.055 -0.0775028 0)
(1.0577 -0.0878693 0)
(1.05997 -0.0988641 0)
(1.06182 -0.11072 0)
(1.06316 -0.123776 0)
(1.06374 -0.138412 0)
(1.06319 -0.154982 0)
(1.06101 -0.173683 0)
(1.05648 -0.194418 0)
(1.04866 -0.216806 0)
(1.03653 -0.240105 0)
(1.01946 -0.262767 0)
(0.998099 -0.281852 0)
(0.974723 -0.293659 0)
(0.95317 -0.298479 0)
(0.936048 -0.304394 0)
(0.911167 -0.31379 0)
(0.869831 -0.316904 0)
(0.832918 -0.315611 0)
(0.810296 -0.313217 0)
(1.02683 -0.0033162 0)
(1.02825 -0.0111676 0)
(1.0307 -0.0178556 0)
(1.03385 -0.0254439 0)
(1.03766 -0.0328982 0)
(1.04177 -0.0409793 0)
(1.04598 -0.049458 0)
(1.05009 -0.0584559 0)
(1.05393 -0.0679263 0)
(1.05739 -0.077877 0)
(1.06047 -0.0883211 0)
(1.06324 -0.0993716 0)
(1.06578 -0.111269 0)
(1.06807 -0.1244 0)
(1.06995 -0.139238 0)
(1.07113 -0.156291 0)
(1.07111 -0.175978 0)
(1.06908 -0.198449 0)
(1.06391 -0.223552 0)
(1.05434 -0.250746 0)
(1.03913 -0.278747 0)
(1.01716 -0.306619 0)
(0.987878 -0.336075 0)
(0.950535 -0.366886 0)
(0.903861 -0.38834 0)
(0.85819 -0.39132 0)
(0.833276 -0.387031 0)
(0.81746 -0.38185 0)
(0.791212 -0.370653 0)
(1.02748 -0.00331477 0)
(1.02893 -0.0111471 0)
(1.03146 -0.0178315 0)
(1.03471 -0.0254228 0)
(1.03867 -0.0328844 0)
(1.04294 -0.0409964 0)
(1.04736 -0.0495162 0)
(1.0517 -0.0585723 0)
(1.05579 -0.0681109 0)
(1.05955 -0.078125 0)
(1.06298 -0.0886099 0)
(1.0662 -0.0996609 0)
(1.06935 -0.111512 0)
(1.07252 -0.124576 0)
(1.07565 -0.139404 0)
(1.0785 -0.156634 0)
(1.08068 -0.176893 0)
(1.08139 -0.200611 0)
(1.07934 -0.227907 0)
(1.07303 -0.258629 0)
(1.06083 -0.291992 0)
(1.04154 -0.325788 0)
(1.01622 -0.355488 0)
(0.987621 -0.374891 0)
(0.960059 -0.385722 0)
(0.932888 -0.403545 0)
(0.885626 -0.422969 0)
(0.822278 -0.426733 0)
(0.777509 -0.425884 0)
(1.02805 -0.00331206 0)
(1.02954 -0.0111227 0)
(1.03215 -0.0178002 0)
(1.03548 -0.0253886 0)
(1.03958 -0.0328508 0)
(1.044 -0.0409838 0)
(1.0486 -0.0495315 0)
(1.05315 -0.0586312 0)
(1.05748 -0.0682203 0)
(1.0615 -0.0782764 0)
(1.06525 -0.0887744 0)
(1.06887 -0.0997857 0)
(1.07257 -0.111526 0)
(1.07651 -0.124418 0)
(1.08076 -0.139068 0)
(1.0852 -0.156214 0)
(1.08952 -0.176658 0)
(1.09306 -0.201118 0)
(1.09445 -0.230024 0)
(1.09202 -0.263552 0)
(1.08405 -0.301346 0)
(1.06847 -0.34181 0)
(1.04311 -0.384371 0)
(1.00649 -0.432906 0)
(0.955836 -0.485124 0)
(0.889167 -0.517167 0)
(0.828617 -0.518905 0)
(0.796411 -0.516522 0)
(0.762079 -0.509227 0)
(1.02856 -0.00330858 0)
(1.03009 -0.0110964 0)
(1.03276 -0.0177649 0)
(1.03617 -0.0253464 0)
(1.0404 -0.0328043 0)
(1.04494 -0.0409506 0)
(1.04972 -0.0495159 0)
(1.05446 -0.0586476 0)
(1.059 -0.0682728 0)
(1.06326 -0.0783552 0)
(1.06729 -0.0888469 0)
(1.07125 -0.0997921 0)
(1.07542 -0.11138 0)
(1.08003 -0.124027 0)
(1.08528 -0.138369 0)
(1.09117 -0.155222 0)
(1.09753 -0.175521 0)
(1.10385 -0.200242 0)
(1.10886 -0.230153 0)
(1.11071 -0.265711 0)
(1.10755 -0.307193 0)
(1.09716 -0.354124 0)
(1.07735 -0.40385 0)
(1.04908 -0.449813 0)
(1.01461 -0.481441 0)
(0.977708 -0.504398 0)
(0.930712 -0.546542 0)
(0.846491 -0.579683 0)
(0.753519 -0.580702 0)
(1.02902 -0.00330467 0)
(1.03058 -0.0110696 0)
(1.0333 -0.017728 0)
(1.03679 -0.0252996 0)
(1.04113 -0.03275 0)
(1.04579 -0.0409035 0)
(1.05072 -0.0494788 0)
(1.05563 -0.0586334 0)
(1.06037 -0.0682835 0)
(1.06484 -0.0783808 0)
(1.0691 -0.0888542 0)
(1.07336 -0.0997177 0)
(1.07792 -0.111129 0)
(1.08311 -0.123483 0)
(1.08922 -0.137426 0)
(1.09643 -0.153827 0)
(1.10468 -0.173724 0)
(1.11361 -0.19828 0)
(1.12221 -0.228606 0)
(1.12857 -0.265481 0)
(1.13066 -0.309527 0)
(1.12677 -0.361085 0)
(1.1138 -0.418782 0)
(1.0865 -0.482652 0)
(1.04216 -0.561536 0)
(0.97515 -0.651906 0)
(0.876689 -0.702417 0)
(0.786297 -0.701797 0)
(0.732386 -0.703693 0)
(1.02943 -0.0033006 0)
(1.03101 -0.0110431 0)
(1.03379 -0.0176909 0)
(1.03734 -0.025251 0)
(1.04177 -0.032692 0)
(1.04654 -0.0408481 0)
(1.05162 -0.0494275 0)
(1.05668 -0.058598 0)
(1.06159 -0.0682648 0)
(1.06624 -0.0783693 0)
(1.07071 -0.0888172 0)
(1.07521 -0.0995914 0)
(1.0801 -0.110813 0)
(1.08578 -0.122848 0)
(1.09265 -0.136334 0)
(1.101 -0.152172 0)
(1.11097 -0.17148 0)
(1.12232 -0.195546 0)
(1.13428 -0.225751 0)
(1.14521 -0.26325 0)
(1.15282 -0.308871 0)
(1.15553 -0.363707 0)
(1.15106 -0.428763 0)
(1.13443 -0.501722 0)
(1.10474 -0.572614 0)
(1.06402 -0.623948 0)
(1.01355 -0.674067 0)
(0.927871 -0.769526 0)
(0.772194 -0.81476 0)
(1.02979 -0.00329651 0)
(1.03139 -0.0110177 0)
(1.03421 -0.0176549 0)
(1.03783 -0.0252026 0)
(1.04235 -0.0326328 0)
(1.04721 -0.0407883 0)
(1.05241 -0.0493678 0)
(1.05761 -0.0585488 0)
(1.06267 -0.0682261 0)
(1.06749 -0.0783325 0)
(1.07213 -0.0887514 0)
(1.07684 -0.0994341 0)
(1.082 -0.110464 0)
(1.08809 -0.12217 0)
(1.09559 -0.135171 0)
(1.10494 -0.150379 0)
(1.11641 -0.168966 0)
(1.12996 -0.192316 0)
(1.14498 -0.22196 0)
(1.16023 -0.259414 0)
(1.17354 -0.305843 0)
(1.18295 -0.362434 0)
(1.1878 -0.431411 0)
(1.18353 -0.513249 0)
(1.1573 -0.606876 0)
(1.10662 -0.732632 0)
(1.02977 -0.902271 0)
(0.872078 -1.00208 0)
(0.683101 -0.990407 0)
(1.0301 -0.00329253 0)
(1.03173 -0.0109938 0)
(1.03459 -0.0176205 0)
(1.03826 -0.0251557 0)
(1.04286 -0.0325747 0)
(1.04781 -0.0407271 0)
(1.05312 -0.0493039 0)
(1.05843 -0.0584915 0)
(1.06363 -0.0681748 0)
(1.06859 -0.0782797 0)
(1.07339 -0.088668 0)
(1.07827 -0.0992612 0)
(1.08365 -0.110104 0)
(1.09007 -0.121486 0)
(1.09811 -0.133997 0)
(1.10829 -0.148543 0)
(1.12107 -0.166329 0)
(1.13659 -0.188815 0)
(1.15437 -0.217612 0)
(1.17345 -0.254439 0)
(1.19232 -0.300927 0)
(1.20871 -0.358268 0)
(1.22183 -0.428866 0)
(1.2304 -0.517976 0)
(1.22523 -0.625353 0)
(1.20203 -0.733167 0)
(1.15989 -0.820096 0)
(1.09006 -0.948222 0)
(0.90114 -1.16719 0)
(1.03038 -0.00328874 0)
(1.03204 -0.0109717 0)
(1.03493 -0.0175883 0)
(1.03864 -0.0251112 0)
(1.0433 -0.0325189 0)
(1.04833 -0.0406668 0)
(1.05374 -0.049239 0)
(1.05916 -0.0584301 0)
(1.06448 -0.0681163 0)
(1.06957 -0.0782174 0)
(1.07449 -0.0885756 0)
(1.07952 -0.0990839 0)
(1.08508 -0.109749 0)
(1.09177 -0.120821 0)
(1.10024 -0.132853 0)
(1.11112 -0.146737 0)
(1.12501 -0.163683 0)
(1.14224 -0.185209 0)
(1.16252 -0.212992 0)
(1.18494 -0.248782 0)
(1.20877 -0.294573 0)
(1.23216 -0.351949 0)
(1.25326 -0.422664 0)
(1.27431 -0.513096 0)
(1.29152 -0.627487 0)
(1.27919 -0.755186 0)
(1.23364 -0.943969 0)
(1.175 -1.3121 0)
(0.840056 -1.51433 0)
(0.999461 -0.00439616 0)
(0.99963 -0.00430629 0)
(0.999693 -0.00421804 0)
(0.999655 -0.00412998 0)
(0.999508 -0.00404068 0)
(0.999239 -0.00394846 0)
(0.998827 -0.00385174 0)
(0.998247 -0.00374912 0)
(0.997476 -0.00363959 0)
(0.996496 -0.00352275 0)
(0.995304 -0.00339906 0)
(0.993915 -0.00326999 0)
(0.992368 -0.00313814 0)
(0.990733 -0.00300709 0)
(0.989103 -0.0028811 0)
(0.987593 -0.00276451 0)
(0.986325 -0.00266109 0)
(0.985412 -0.00257335 0)
(0.984944 -0.00250194 0)
(0.997755 -0.00846776 0)
(0.997651 -0.00830958 0)
(0.99761 -0.00814408 0)
(0.997626 -0.00797485 0)
(0.997703 -0.00780393 0)
(0.997855 -0.00763364 0)
(0.998106 -0.00746658 0)
(0.998485 -0.00730536 0)
(0.999029 -0.00715244 0)
(0.999773 -0.0070097 0)
(1.00075 -0.00687795 0)
(1.00196 -0.00675638 0)
(1.0034 -0.00664206 0)
(1.00502 -0.00652977 0)
(1.00673 -0.00641226 0)
(1.00844 -0.00628094 0)
(1.00999 -0.00612724 0)
(1.01123 -0.00594407 0)
(1.01204 -0.00572747 0)
(0.993787 -0.0139205 0)
(0.993753 -0.0136091 0)
(0.993673 -0.0132923 0)
(0.993548 -0.0129696 0)
(0.993375 -0.012641 0)
(0.993145 -0.0123056 0)
(0.992841 -0.0119619 0)
(0.992442 -0.0116083 0)
(0.991921 -0.0112429 0)
(0.991248 -0.0108643 0)
(0.990393 -0.0104718 0)
(0.989333 -0.0100663 0)
(0.98806 -0.00965073 0)
(0.986589 -0.00923062 0)
(0.98497 -0.0088138 0)
(0.983287 -0.00840969 0)
(0.981659 -0.0080278 0)
(0.980231 -0.00767567 0)
(0.979151 -0.00735693 0)
(0.990755 -0.0179142 0)
(0.990513 -0.0176234 0)
(0.990329 -0.0173207 0)
(0.990191 -0.0170085 0)
(0.990097 -0.0166872 0)
(0.990049 -0.0163572 0)
(0.990061 -0.0160199 0)
(0.990156 -0.0156762 0)
(0.990366 -0.0153275 0)
(0.990733 -0.0149745 0)
(0.991301 -0.0146171 0)
(0.992113 -0.0142533 0)
(0.993196 -0.0138787 0)
(0.994553 -0.013486 0)
(0.996146 -0.013065 0)
(0.997888 -0.0126038 0)
(0.99964 -0.0120908 0)
(1.00122 -0.0115182 0)
(1.00244 -0.0108849 0)
(0.984602 -0.0203605 0)
(0.984287 -0.0196815 0)
(0.983943 -0.0189847 0)
(0.983575 -0.0182705 0)
(0.983183 -0.0175412 0)
(0.982764 -0.0167987 0)
(0.98231 -0.0160454 0)
(0.981804 -0.0152841 0)
(0.981218 -0.0145183 0)
(0.980518 -0.0137522 0)
(0.979655 -0.0129912 0)
(0.978575 -0.0122428 0)
(0.977225 -0.0115169 0)
(0.975572 -0.0108265 0)
(0.973616 -0.0101877 0)
(0.97142 -0.00961801 0)
(0.969115 -0.00913353 0)
(0.966912 -0.00874461 0)
(0.965069 -0.00845098 0)
(0.978051 -0.0278516 0)
(0.977472 -0.0273135 0)
(0.976953 -0.026769 0)
(0.976494 -0.0262208 0)
(0.9761 -0.0256688 0)
(0.975784 -0.0251135 0)
(0.975568 -0.0245558 0)
(0.97548 -0.0239967 0)
(0.975559 -0.0234365 0)
(0.975857 -0.0228751 0)
(0.976435 -0.0223103 0)
(0.977361 -0.0217372 0)
(0.978699 -0.0211463 0)
(0.980492 -0.0205226 0)
(0.982735 -0.0198446 0)
(0.985348 -0.0190857 0)
(0.988151 -0.0182173 0)
(0.990862 -0.0172152 0)
(0.993123 -0.0160681 0)
(0.970426 -0.0325773 0)
(0.96992 -0.0315122 0)
(0.969392 -0.0304208 0)
(0.968858 -0.0293031 0)
(0.968327 -0.028161 0)
(0.9678 -0.0269948 0)
(0.967275 -0.0258045 0)
(0.966735 -0.02459 0)
(0.966152 -0.0233512 0)
(0.965474 -0.022088 0)
(0.964628 -0.0208015 0)
(0.963516 -0.0194952 0)
(0.962019 -0.0181768 0)
(0.960022 -0.0168602 0)
(0.95744 -0.0155676 0)
(0.954269 -0.0143287 0)
(0.950636 -0.013178 0)
(0.946832 -0.012147 0)
(0.943304 -0.0112539 0)
(0.961442 -0.0422012 0)
(0.960482 -0.0413689 0)
(0.959582 -0.0405208 0)
(0.958736 -0.0396592 0)
(0.957947 -0.0387811 0)
(0.957225 -0.0378845 0)
(0.956583 -0.0369676 0)
(0.956045 -0.0360285 0)
(0.955645 -0.0350654 0)
(0.955433 -0.0340768 0)
(0.955483 -0.0330607 0)
(0.955893 -0.0320142 0)
(0.956784 -0.030931 0)
(0.95828 -0.0297994 0)
(0.960475 -0.0285993 0)
(0.963374 -0.0273009 0)
(0.966835 -0.0258661 0)
(0.970511 -0.0242569 0)
(0.973868 -0.0224477 0)
(0.952371 -0.0502048 0)
(0.951493 -0.0486954 0)
(0.950583 -0.0471318 0)
(0.949657 -0.0455148 0)
(0.948723 -0.0438464 0)
(0.947784 -0.0421271 0)
(0.946839 -0.0403572 0)
(0.945878 -0.0385368 0)
(0.944879 -0.0366663 0)
(0.943801 -0.0347462 0)
(0.942574 -0.0327777 0)
(0.941094 -0.0307638 0)
(0.939212 -0.0287111 0)
(0.936751 -0.0266325 0)
(0.933535 -0.0245515 0)
(0.929453 -0.0225038 0)
(0.92456 -0.0205368 0)
(0.919167 -0.0187009 0)
(0.913892 -0.0170341 0)
(0.941837 -0.0609616 0)
(0.94021 -0.0597406 0)
(0.938644 -0.0584766 0)
(0.937129 -0.0571736 0)
(0.935662 -0.0558305 0)
(0.934246 -0.0544471 0)
(0.932893 -0.0530236 0)
(0.93162 -0.0515604 0)
(0.930459 -0.0500578 0)
(0.929456 -0.0485165 0)
(0.928686 -0.046937 0)
(0.928259 -0.0453193 0)
(0.928331 -0.0436617 0)
(0.929093 -0.0419573 0)
(0.930742 -0.0401902 0)
(0.933407 -0.0383299 0)
(0.937036 -0.0363301 0)
(0.941284 -0.0341346 0)
(0.945457 -0.0316949 0)
(0.931042 -0.0737727 0)
(0.929418 -0.0717123 0)
(0.927766 -0.0695652 0)
(0.926104 -0.0673349 0)
(0.924445 -0.0650244 0)
(0.922796 -0.062635 0)
(0.92116 -0.0601674 0)
(0.919536 -0.0576228 0)
(0.917909 -0.0550024 0)
(0.916252 -0.0523081 0)
(0.914511 -0.0495424 0)
(0.912593 -0.046709 0)
(0.910347 -0.0438139 0)
(0.907563 -0.0408689 0)
(0.903982 -0.037896 0)
(0.899367 -0.0349335 0)
(0.893632 -0.0320392 0)
(0.887022 -0.0292847 0)
(0.880263 -0.0267344 0)
(0.91937 -0.0865487 0)
(0.916766 -0.0848174 0)
(0.914256 -0.0829925 0)
(0.911822 -0.0810834 0)
(0.909457 -0.0790956 0)
(0.907162 -0.0770363 0)
(0.904943 -0.0749138 0)
(0.902816 -0.0727363 0)
(0.900804 -0.0705114 0)
(0.898948 -0.0682463 0)
(0.897313 -0.0659472 0)
(0.896002 -0.0636193 0)
(0.895173 -0.0612655 0)
(0.895047 -0.0588843 0)
(0.895898 -0.0564639 0)
(0.897976 -0.0539742 0)
(0.90137 -0.0513577 0)
(0.905799 -0.0485292 0)
(0.910454 -0.0453958 0)
(0.906869 -0.104875 0)
(0.904092 -0.102117 0)
(0.901318 -0.0992383 0)
(0.898577 -0.0962449 0)
(0.895892 -0.093139 0)
(0.893278 -0.0899195 0)
(0.890744 -0.0865845 0)
(0.888294 -0.0831324 0)
(0.885922 -0.0795623 0)
(0.883611 -0.075874 0)
(0.881319 -0.0720683 0)
(0.878969 -0.0681476 0)
(0.876426 -0.0641162 0)
(0.87347 -0.0599833 0)
(0.869787 -0.0557682 0)
(0.865006 -0.0515108 0)
(0.858839 -0.0472838 0)
(0.851345 -0.0431956 0)
(0.843247 -0.0393699 0)
(0.894035 -0.120907 0)
(0.890057 -0.118445 0)
(0.886241 -0.115769 0)
(0.882569 -0.112907 0)
(0.87903 -0.109877 0)
(0.87562 -0.106702 0)
(0.872342 -0.103409 0)
(0.869208 -0.100023 0)
(0.866232 -0.0965692 0)
(0.863445 -0.0930728 0)
(0.860896 -0.0895566 0)
(0.858665 -0.0860423 0)
(0.856892 -0.0825494 0)
(0.855793 -0.0790936 0)
(0.855681 -0.0756814 0)
(0.856927 -0.0722984 0)
(0.859817 -0.0688896 0)
(0.864263 -0.0653406 0)
(0.869454 -0.0614823 0)
(0.879641 -0.144832 0)
(0.875068 -0.141037 0)
(0.87058 -0.13707 0)
(0.866219 -0.132923 0)
(0.862023 -0.128603 0)
(0.858025 -0.124108 0)
(0.854245 -0.119436 0)
(0.850694 -0.114589 0)
(0.847378 -0.109569 0)
(0.84429 -0.10438 0)
(0.841406 -0.0990274 0)
(0.838673 -0.0935157 0)
(0.835982 -0.0878512 0)
(0.833141 -0.0820422 0)
(0.82982 -0.0761031 0)
(0.825541 -0.070067 0)
(0.819759 -0.0640111 0)
(0.812156 -0.0580798 0)
(0.803182 -0.0524883 0)
(0.86496 -0.166021 0)
(0.858818 -0.162423 0)
(0.852953 -0.158331 0)
(0.847372 -0.153846 0)
(0.842083 -0.149005 0)
(0.837082 -0.143865 0)
(0.832386 -0.138487 0)
(0.828005 -0.132927 0)
(0.823956 -0.127247 0)
(0.820257 -0.121506 0)
(0.816937 -0.115766 0)
(0.814046 -0.110086 0)
(0.811679 -0.104528 0)
(0.810003 -0.0991498 0)
(0.809303 -0.0940019 0)
(0.810005 -0.0891176 0)
(0.812604 -0.0844798 0)
(0.817366 -0.0799834 0)
(0.823754 -0.0753763 0)
(0.848174 -0.19646 0)
(0.840619 -0.190973 0)
(0.833323 -0.185186 0)
(0.82637 -0.179014 0)
(0.819793 -0.172482 0)
(0.813689 -0.16561 0)
(0.808083 -0.158414 0)
(0.803016 -0.150934 0)
(0.798504 -0.143207 0)
(0.794562 -0.135272 0)
(0.791182 -0.127166 0)
(0.788331 -0.118921 0)
(0.785936 -0.110564 0)
(0.78384 -0.102115 0)
(0.781747 -0.0935897 0)
(0.779134 -0.0850071 0)
(0.775225 -0.0764361 0)
(0.769164 -0.0680239 0)
(0.760632 -0.0600792 0)
(0.830746 -0.2256 0)
(0.82076 -0.220183 0)
(0.811305 -0.213676 0)
(0.802347 -0.206336 0)
(0.79406 -0.198278 0)
(0.78642 -0.189591 0)
(0.779513 -0.180411 0)
(0.773373 -0.170847 0)
(0.768037 -0.161022 0)
(0.763516 -0.151065 0)
(0.759826 -0.141111 0)
(0.756974 -0.1313 0)
(0.75499 -0.121784 0)
(0.753949 -0.112715 0)
(0.754028 -0.104246 0)
(0.755587 -0.0965262 0)
(0.759217 -0.0896356 0)
(0.765576 -0.0835937 0)
(0.774889 -0.0781554 0)
(0.810872 -0.265371 0)
(0.798167 -0.257293 0)
(0.785819 -0.248412 0)
(0.774366 -0.238666 0)
(0.763674 -0.227974 0)
(0.75403 -0.216513 0)
(0.745481 -0.204344 0)
(0.738124 -0.191619 0)
(0.732002 -0.178487 0)
(0.727167 -0.165099 0)
(0.723617 -0.151602 0)
(0.721343 -0.138132 0)
(0.720282 -0.124799 0)
(0.720309 -0.111691 0)
(0.721163 -0.0988648 0)
(0.72234 -0.0863286 0)
(0.722925 -0.0741643 0)
(0.721621 -0.0624474 0)
(0.716658 -0.0514919 0)
(0.790668 -0.306541 0)
(0.773274 -0.298112 0)
(0.757362 -0.287764 0)
(0.74214 -0.27544 0)
(0.728394 -0.26175 0)
(0.716056 -0.246719 0)
(0.705346 -0.23066 0)
(0.696356 -0.213817 0)
(0.689195 -0.196429 0)
(0.683867 -0.178769 0)
(0.680406 -0.161113 0)
(0.678773 -0.143742 0)
(0.67893 -0.126962 0)
(0.680827 -0.111092 0)
(0.68447 -0.09647 0)
(0.69002 -0.0835001 0)
(0.698012 -0.0724177 0)
(0.709091 -0.0636017 0)
(0.724867 -0.0571141 0)
(0.766826 -0.359994 0)
(0.745423 -0.348726 0)
(0.723751 -0.334586 0)
(0.704208 -0.318789 0)
(0.686273 -0.300718 0)
(0.670492 -0.280941 0)
(0.657035 -0.259757 0)
(0.646094 -0.237455 0)
(0.637692 -0.214451 0)
(0.631968 -0.191079 0)
(0.628876 -0.167696 0)
(0.628423 -0.144649 0)
(0.630529 -0.122249 0)
(0.635071 -0.100776 0)
(0.641811 -0.0804662 0)
(0.650298 -0.0613299 0)
(0.659374 -0.043623 0)
(0.667987 -0.0272031 0)
(0.672163 -0.0121897 0)
(0.745603 -0.419498 0)
(0.714239 -0.405807 0)
(0.686646 -0.389454 0)
(0.660603 -0.368808 0)
(0.637387 -0.345337 0)
(0.6173 -0.319542 0)
(0.600562 -0.291702 0)
(0.587209 -0.262588 0)
(0.577525 -0.232556 0)
(0.571349 -0.202124 0)
(0.568797 -0.171757 0)
(0.569779 -0.141903 0)
(0.574248 -0.11306 0)
(0.582098 -0.0857685 0)
(0.593205 -0.0605783 0)
(0.607402 -0.0384763 0)
(0.6255 -0.019819 0)
(0.64684 -0.00588106 0)
(0.675585 0.00212904 0)
(0.716952 -0.492033 0)
(0.679404 -0.476259 0)
(0.642341 -0.453682 0)
(0.608688 -0.426704 0)
(0.579406 -0.396296 0)
(0.554438 -0.362289 0)
(0.533936 -0.326445 0)
(0.518375 -0.288898 0)
(0.507195 -0.250483 0)