/*--------------------------------*- C++ -*----------------------------------*\
  =========                 |
  \\      /  F ield         | OpenFOAM: The Open Source CFD Toolbox
   \\    /   O peration     | Website:  https://openfoam.org
    \\  /    A nd           | Version:  10
     \\/     M anipulation  |
\*---------------------------------------------------------------------------*/
FoamFile
{
    format      ascii;
    class       volVectorField;
    location    "0";
    object      U;
}
// * * * * * * * * * * * * * * * * * * * * * * * * * * * * * * * * * * * * * //

dimensions      [0 1 -1 0 0 0 0];

internalField   nonuniform List<vector> 
18483
(
(0.999991 -0.000207878 0)
(0.999991 -0.0007338 0)
(0.99999 -0.00115036 0)
(0.99999 -0.00158365 0)
(0.999989 -0.0019734 0)
(0.999989 -0.00232836 0)
(0.999989 -0.00263303 0)
(0.999989 -0.00287845 0)
(0.999989 -0.00305741 0)
(0.999992 -0.00316676 0)
(0.999995 -0.00321069 0)
(1 -0.00320265 0)
(1.00001 -0.00316443 0)
(1.00001 -0.0031324 0)
(1.00001 -0.00314497 0)
(0.999996 -0.00321827 0)
(0.999921 -0.00330822 0)
(0.999551 -0.00333214 0)
(0.998277 -0.00323814 0)
(0.995388 -0.00304219 0)
(0.991366 -0.00287593 0)
(0.98851 -0.00284947 0)
(0.988604 -0.00286274 0)
(0.990856 -0.0027705 0)
(0.993466 -0.00258077 0)
(0.99551 -0.00236215 0)
(0.996884 -0.00215494 0)
(0.997753 -0.00197514 0)
(0.998289 -0.00182537 0)
(1.00065 -0.000658561 0)
(1.00065 -0.00231385 0)
(1.00069 -0.00363349 0)
(1.00072 -0.00501918 0)
(1.00073 -0.00627504 0)
(1.00072 -0.0074367 0)
(1.00068 -0.00845294 0)
(1.0006 -0.00929734 0)
(1.00047 -0.00994741 0)
(1.00031 -0.0103969 0)
(1.00012 -0.010654 0)
(0.999921 -0.0107432 0)
(0.999738 -0.0106845 0)
(0.999594 -0.0104402 0)
(0.999479 -0.00995001 0)
(0.999336 -0.00918316 0)
(0.99912 -0.00821872 0)
(0.999029 -0.00723533 0)
(0.99987 -0.00639155 0)
(1.00286 -0.0057598 0)
(1.00776 -0.00520208 0)
(1.01142 -0.00452586 0)
(1.011 -0.003864 0)
(1.00761 -0.00346673 0)
(1.00402 -0.00330454 0)
(1.00147 -0.00323127 0)
(0.999902 -0.00317043 0)
(0.998983 -0.00309561 0)
(0.998446 -0.00300417 0)
(1.00197 -0.0011 0)
(1.00202 -0.00384891 0)
(1.00214 -0.00605889 0)
(1.00224 -0.00840337 0)
(1.00231 -0.0105479 0)
(1.00231 -0.0125668 0)
(1.00221 -0.01437 0)
(1.002 -0.0159163 0)
(1.00167 -0.0171609 0)
(1.00124 -0.0180808 0)
(1.00074 -0.0186672 0)
(1.00021 -0.0189278 0)
(0.999701 -0.0188907 0)
(0.999232 -0.018635 0)
(0.99877 -0.0183295 0)
(0.998281 -0.0181933 0)
(0.997742 -0.0182966 0)
(0.996922 -0.0184876 0)
(0.994969 -0.0185413 0)
(0.990688 -0.0182894 0)
(0.98456 -0.0177103 0)
(0.980173 -0.0169961 0)
(0.980656 -0.0162529 0)
(0.984462 -0.0153546 0)
(0.988249 -0.014344 0)
(0.990753 -0.0133884 0)
(0.992191 -0.01256 0)
(0.992978 -0.0118682 0)
(0.993396 -0.0113008 0)
(1.00363 -0.00148944 0)
(1.00374 -0.00520029 0)
(1.00397 -0.0082156 0)
(1.00418 -0.0114522 0)
(1.00435 -0.0144543 0)
(1.00439 -0.0173379 0)
(1.00427 -0.0199727 0)
(1.00394 -0.0222997 0)
(1.0034 -0.0242394 0)
(1.00266 -0.0257416 0)
(1.00176 -0.0267781 0)
(1.00073 -0.0273484 0)
(0.999644 -0.0274902 0)
(0.998528 -0.0272786 0)
(0.997439 -0.0267458 0)
(0.996431 -0.025731 0)
(0.995549 -0.0240963 0)
(0.994946 -0.0220115 0)
(0.995369 -0.0198808 0)
(0.99815 -0.0181293 0)
(1.00316 -0.017034 0)
(1.00669 -0.0164518 0)
(1.00509 -0.0160345 0)
(0.999956 -0.0157517 0)
(0.995189 -0.0155878 0)
(0.992186 -0.0154025 0)
(0.990516 -0.0151511 0)
(0.989606 -0.0148483 0)
(0.989101 -0.0145164 0)
(1.00539 -0.00180831 0)
(1.00559 -0.00630906 0)
(1.00596 -0.0100108 0)
(1.00632 -0.0140365 0)
(1.00663 -0.017836 0)
(1.00677 -0.0215637 0)
(1.00667 -0.025054 0)
(1.00626 -0.0282319 0)
(1.00552 -0.0309854 0)
(1.00445 -0.0332406 0)
(1.00308 -0.0349519 0)
(1.00148 -0.0361059 0)
(0.999724 -0.0367303 0)
(0.997906 -0.0368809 0)
(0.996103 -0.0366598 0)
(0.994329 -0.0362872 0)
(0.992525 -0.0360917 0)
(0.990564 -0.0361931 0)
(0.987946 -0.0363058 0)
(0.983662 -0.0359629 0)
(0.9777 -0.0348061 0)
(0.973112 -0.0329856 0)
(0.973368 -0.0310884 0)
(0.977105 -0.0293389 0)
(0.980449 -0.0276609 0)
(0.98215 -0.0261502 0)
(0.982798 -0.0248565 0)
(0.982946 -0.0237613 0)
(0.982876 -0.022844 0)
(1.00722 -0.0020594 0)
(1.00753 -0.0071838 0)
(1.00806 -0.0114513 0)
(1.00862 -0.0161551 0)
(1.00914 -0.0206763 0)
(1.00946 -0.0252074 0)
(1.00946 -0.0295563 0)
(1.00906 -0.0336363 0)
(1.00819 -0.0373032 0)
(1.00686 -0.0404454 0)
(1.00511 -0.0429728 0)
(1.00303 -0.0448309 0)
(1.00074 -0.0460114 0)
(0.998359 -0.0465358 0)
(0.995986 -0.0464477 0)
(0.99371 -0.0457377 0)
(0.991625 -0.0442859 0)
(0.98986 -0.0420504 0)
(0.988814 -0.0393638 0)
(0.98945 -0.0368848 0)
(0.992239 -0.0352193 0)
(0.994725 -0.0344713 0)
(0.993077 -0.0340081 0)
(0.987751 -0.0334112 0)
(0.982661 -0.0328628 0)
(0.979496 -0.0323484 0)
(0.977675 -0.0317985 0)
(0.976572 -0.0312336 0)
(0.97586 -0.0306678 0)
(1.00908 -0.00225363 0)
(1.00951 -0.00786029 0)
(1.01024 -0.0125845 0)
(1.01106 -0.0178579 0)
(1.01186 -0.0230142 0)
(1.01243 -0.0282858 0)
(1.01264 -0.0334625 0)
(1.01234 -0.0384484 0)
(1.01146 -0.043065 0)
(1.00997 -0.0471591 0)
(1.0079 -0.0505959 0)
(1.00532 -0.0532845 0)
(1.00235 -0.0551869 0)
(0.99912 -0.0563048 0)
(0.995736 -0.0566944 0)
(0.992275 -0.0565227 0)
(0.988771 -0.0561679 0)
(0.985216 -0.0560065 0)
(0.981507 -0.0560182 0)
(0.977104 -0.0557514 0)
(0.97148 -0.0546636 0)
(0.966094 -0.0525672 0)
(0.964215 -0.0500572 0)
(0.966141 -0.0477933 0)
(0.968458 -0.0456463 0)
(0.969357 -0.0435871 0)
(0.969371 -0.0417651 0)
(0.969057 -0.0401821 0)
(0.968645 -0.0388293 0)
(1.01092 -0.00240253 0)
(1.01149 -0.00837712 0)
(1.01244 -0.0134635 0)
(1.01356 -0.0192041 0)
(1.01468 -0.0249022 0)
(1.01558 -0.0308313 0)
(1.01608 -0.0367721 0)
(1.01599 -0.0426272 0)
(1.0152 -0.0481962 0)
(1.01363 -0.0533026 0)
(1.01126 -0.0577794 0)
(1.00816 -0.0614953 0)
(1.00449 -0.0643636 0)
(1.00043 -0.06635 0)
(0.996143 -0.067484 0)
(0.991815 -0.0677831 0)
(0.987655 -0.0671872 0)
(0.983925 -0.0655428 0)
(0.980922 -0.0629038 0)
(0.979232 -0.0598289 0)
(0.979558 -0.057108 0)
(0.980868 -0.0553311 0)
(0.979619 -0.0542605 0)
(0.974457 -0.0531238 0)
(0.96861 -0.0519966 0)
(0.96465 -0.0510662 0)
(0.962213 -0.050147 0)
(0.960567 -0.0492281 0)
(0.959381 -0.0483278 0)
(1.01269 -0.00251541 0)
(1.01342 -0.00876592 0)
(1.0146 -0.0141332 0)
(1.01603 -0.0202469 0)
(1.01752 -0.0263919 0)
(1.0188 -0.0328847 0)
(1.01966 -0.0395062 0)
(1.01988 -0.0461698 0)
(1.01927 -0.0526679 0)
(1.01773 -0.0588071 0)
(1.01522 -0.0643789 0)
(1.01181 -0.069189 0)
(1.00765 -0.0730794 0)
(1.00294 -0.0759464 0)
(0.997863 -0.0777602 0)
(0.992578 -0.078537 0)
(0.987198 -0.0784934 0)
(0.9818 -0.0781885 0)
(0.976386 -0.0780948 0)
(0.970676 -0.0780313 0)
(0.964064 -0.0773439 0)
(0.957013 -0.0754829 0)
(0.952232 -0.0726036 0)
(0.951645 -0.0696646 0)
(0.952855 -0.0669326 0)
(0.953051 -0.0641665 0)
(0.952334 -0.0616219 0)
(0.951402 -0.059388 0)
(0.950475 -0.0574459 0)
(1.01438 -0.00259905 0)
(1.01525 -0.00905014 0)
(1.01667 -0.0146285 0)
(1.01842 -0.0210305 0)
(1.02029 -0.027532 0)
(1.022 -0.0344924 0)
(1.02329 -0.0417019 0)
(1.02389 -0.0490921 0)
(1.02359 -0.0564554 0)
(1.02224 -0.0635854 0)
(1.01977 -0.0702412 0)
(1.0162 -0.0761913 0)
(1.0116 -0.0812413 0)
(1.00614 -0.0852533 0)
(0.999994 -0.0881821 0)
(0.993393 -0.0900407 0)
(0.986625 -0.0908328 0)
(0.980132 -0.090388 0)
(0.974427 -0.0884615 0)
(0.969974 -0.0852968 0)
(0.967432 -0.0817358 0)
(0.966774 -0.0787872 0)
(0.965259 -0.0768876 0)
(0.959963 -0.0752113 0)
(0.952721 -0.0733513 0)
(0.947162 -0.0717526 0)
(0.943611 -0.0702641 0)
(0.941058 -0.0687596 0)
(0.9391 -0.0673019 0)
(1.01594 -0.00265859 0)
(1.01695 -0.00924795 0)
(1.01861 -0.014978 0)
(1.02068 -0.0215944 0)
(1.02295 -0.0283702 0)
(1.02511 -0.0357065 0)
(1.02686 -0.0434081 0)
(1.02792 -0.0514296 0)
(1.02804 -0.0595723 0)
(1.02701 -0.0676355 0)
(1.0247 -0.0753766 0)
(1.02104 -0.0825548 0)
(1.0161 -0.0889411 0)
(1.01002 -0.0943212 0)
(1.00306 -0.0985277 0)
(0.99554 -0.101417 0)
(0.98778 -0.102922 0)
(0.980042 -0.103286 0)
(0.972366 -0.103245 0)
(0.964561 -0.103356 0)
(0.956153 -0.103183 0)
(0.946868 -0.101754 0)
(0.938535 -0.0986691 0)
(0.934389 -0.0949616 0)
(0.933897 -0.0915221 0)
(0.933268 -0.0880192 0)
(0.931495 -0.0846106 0)
(0.929553 -0.0815932 0)
(0.927758 -0.0789277 0)
(1.01737 -0.00269833 0)
(1.01852 -0.0093749 0)
(1.0204 -0.0152076 0)
(1.02279 -0.0219759 0)
(1.02546 -0.0289542 0)
(1.02807 -0.0365835 0)
(1.03032 -0.0446866 0)
(1.03189 -0.0532452 0)
(1.0325 -0.0620818 0)
(1.03188 -0.0710193 0)
(1.02985 -0.079826 0)
(1.02632 -0.0882482 0)
(1.02131 -0.0960065 0)
(1.01495 -0.102804 0)
(1.00743 -0.108398 0)
(0.99898 -0.112641 0)
(0.989865 -0.115524 0)
(0.980475 -0.117049 0)
(0.971398 -0.116918 0)
(0.963341 -0.11475 0)
(0.957068 -0.11097 0)
(0.95325 -0.107022 0)
(0.950403 -0.10421 0)
(0.944631 -0.102036 0)
(0.935497 -0.0994432 0)
(0.927268 -0.0969357 0)
(0.921844 -0.094698 0)
(0.917907 -0.0923976 0)
(0.914769 -0.0901503 0)
(1.01868 -0.00272209 0)
(1.01996 -0.00944479 0)
(1.02205 -0.0153402 0)
(1.02475 -0.0222097 0)
(1.02779 -0.0293303 0)
(1.03086 -0.0371812 0)
(1.03362 -0.0456053 0)
(1.03573 -0.0546139 0)
(1.03688 -0.0640581 0)
(1.03678 -0.0737891 0)
(1.03521 -0.0835888 0)
(1.03203 -0.0932005 0)
(1.02719 -0.102335 0)
(1.02071 -0.110682 0)
(1.01266 -0.117971 0)
(1.00328 -0.123986 0)
(0.992966 -0.128522 0)
(0.982243 -0.131382 0)
(0.971465 -0.132754 0)
(0.960589 -0.133527 0)
(0.949322 -0.134208 0)
(0.937178 -0.133856 0)
(0.924823 -0.131172 0)
(0.915837 -0.126745 0)
(0.912356 -0.122337 0)
(0.910581 -0.118011 0)
(0.907392 -0.113513 0)
(0.903862 -0.109447 0)
(0.900735 -0.105844 0)
(1.01986 -0.00273333 0)
(1.02126 -0.00946997 0)
(1.02355 -0.0153968 0)
(1.02653 -0.022327 0)
(1.02995 -0.0295412 0)
(1.03346 -0.0375543 0)
(1.03672 -0.0462297 0)
(1.0394 -0.0556076 0)
(1.04114 -0.0655687 0)
(1.04165 -0.075995 0)
(1.04066 -0.0866942 0)
(1.03797 -0.0974369 0)
(1.03345 -0.107961 0)
(1.02703 -0.117958 0)
(1.01876 -0.127086 0)
(1.00889 -0.134983 0)
(0.997771 -0.141341 0)
(0.985785 -0.145943 0)
(0.973314 -0.148603 0)
(0.961103 -0.148914 0)
(0.95029 -0.14656 0)
(0.941952 -0.14243 0)
(0.935962 -0.138686 0)
(0.928892 -0.136201 0)
(0.917623 -0.133347 0)
(0.905477 -0.129886 0)
(0.896905 -0.126746 0)
(0.890925 -0.123511 0)
(0.886058 -0.120195 0)
(1.02093 -0.00273509 0)
(1.02243 -0.00946127 0)
(1.02491 -0.0153955 0)
(1.02816 -0.0223552 0)
(1.03192 -0.0296242 0)
(1.03586 -0.0377512 0)
(1.03962 -0.0466182 0)
(1.04285 -0.0562912 0)
(1.04522 -0.0666812 0)
(1.04638 -0.0777051 0)
(1.04605 -0.0892101 0)
(1.04396 -0.101008 0)
(1.03996 -0.112865 0)
(1.03391 -0.124471 0)
(1.02581 -0.135442 0)
(1.01575 -0.145378 0)
(1.00393 -0.153944 0)
(0.9907 -0.160812 0)
(0.976533 -0.165705 0)
(0.961897 -0.168952 0)
(0.946853 -0.171502 0)
(0.930935 -0.173324 0)
(0.913873 -0.17262 0)
(0.898493 -0.168333 0)
(0.88954 -0.162666 0)
(0.885459 -0.157301 0)
(0.880478 -0.15151 0)
(0.874501 -0.145908 0)
(0.86932 -0.140991 0)
(1.02189 -0.00272996 0)
(1.02349 -0.00942789 0)
(1.02614 -0.0153517 0)
(1.02964 -0.0223175 0)
(1.03372 -0.0296114 0)
(1.03806 -0.0378134 0)
(1.0423 -0.0468214 0)
(1.04608 -0.0567247 0)
(1.04906 -0.0674648 0)
(1.05089 -0.0789948 0)
(1.05127 -0.0912029 0)
(1.04991 -0.103941 0)
(1.04662 -0.117009 0)
(1.0412 -0.130131 0)
(1.03351 -0.142961 0)
(1.0235 -0.155092 0)
(1.0113 -0.1661 0)
(0.997276 -0.175501 0)
(0.981872 -0.1828 0)
(0.965727 -0.187491 0)
(0.949926 -0.188817 0)
(0.935749 -0.186541 0)
(0.924274 -0.182581 0)
(0.914171 -0.17987 0)
(0.900588 -0.177655 0)
(0.88342 -0.173756 0)
(0.869399 -0.169501 0)
(0.860043 -0.165262 0)
(0.852505 -0.160529 0)
(1.02276 -0.00271998 0)
(1.02444 -0.00937718 0)
(1.02725 -0.0152778 0)
(1.03098 -0.0222322 0)
(1.03536 -0.0295283 0)
(1.04007 -0.0377749 0)
(1.04476 -0.0468823 0)
(1.04907 -0.0569608 0)
(1.05265 -0.0679815 0)
(1.05516 -0.0799288 0)
(1.05628 -0.0927281 0)
(1.05574 -0.106273 0)
(1.05329 -0.120416 0)
(1.04866 -0.134946 0)
(1.04163 -0.149572 0)
(1.03205 -0.163876 0)
(1.01998 -0.177365 0)
(1.00561 -0.189507 0)
(0.989229 -0.199776 0)
(0.971256 -0.207876 0)
(0.952042 -0.214359 0)
(0.931426 -0.220032 0)
(0.908933 -0.223616 0)
(0.885856 -0.222025 0)
(0.867971 -0.215836 0)
(0.858507 -0.209137 0)
(0.850985 -0.202198 0)
(0.84141 -0.194532 0)
(0.832767 -0.187638 0)
(1.02354 -0.00270674 0)
(1.0253 -0.0093149 0)
(1.02826 -0.0151836 0)
(1.03219 -0.0221139 0)
(1.03685 -0.0293953 0)
(1.04191 -0.0376632 0)
(1.04701 -0.046836 0)
(1.05183 -0.0570437 0)
(1.05599 -0.068283 0)
(1.05917 -0.0805641 0)
(1.06106 -0.0938463 0)
(1.06136 -0.10807 0)
(1.05981 -0.123144 0)
(1.05612 -0.138928 0)
(1.05 -0.155186 0)
(1.04123 -0.171536 0)
(1.02967 -0.187513 0)
(1.01535 -0.202603 0)
(0.998476 -0.216224 0)
(0.979482 -0.227629 0)
(0.959141 -0.235668 0)
(0.938726 -0.238838 0)
(0.919804 -0.237252 0)
(0.903656 -0.234724 0)
(0.886751 -0.234075 0)
(0.864122 -0.231703 0)
(0.841302 -0.226532 0)
(0.825457 -0.221162 0)
(0.813512 -0.214812 0)
(1.02425 -0.00269144 0)
(1.02608 -0.00924547 0)
(1.02917 -0.0150766 0)
(1.03328 -0.0219736 0)
(1.03821 -0.0292286 0)
(1.04358 -0.0374998 0)
(1.04908 -0.0467105 0)
(1.05436 -0.0570091 0)
(1.05908 -0.0684135 0)
(1.0629 -0.0809547 0)
(1.06553 -0.0946236 0)
(1.06668 -0.109404 0)
(1.06608 -0.125256 0)
(1.06344 -0.142105 0)
(1.05843 -0.159791 0)
(1.0507 -0.17802 0)
(1.04 -0.196393 0)
(1.02624 -0.214405 0)
(1.00955 -0.231448 0)
(0.990063 -0.246771 0)
(0.967795 -0.259905 0)
(0.942578 -0.271597 0)
(0.91426 -0.282235 0)
(0.883225 -0.288246 0)
(0.853273 -0.285396 0)
(0.832495 -0.277625 0)
(0.819726 -0.269913 0)
(0.805321 -0.260491 0)
(0.790485 -0.250694 0)
(1.02489 -0.00267497 0)
(1.02679 -0.00917229 0)
(1.02999 -0.0149627 0)
(1.03427 -0.0218202 0)
(1.03944 -0.0290404 0)
(1.0451 -0.0373016 0)
(1.05096 -0.0465285 0)
(1.05668 -0.0568867 0)
(1.06192 -0.0684117 0)
(1.06635 -0.0811515 0)
(1.06969 -0.0951227 0)
(1.07167 -0.110346 0)
(1.07203 -0.126825 0)
(1.07049 -0.144548 0)
(1.06668 -0.163449 0)
(1.0602 -0.183334 0)
(1.05071 -0.203881 0)
(1.03802 -0.22466 0)
(1.02209 -0.245174 0)
(1.00279 -0.264734 0)
(0.980044 -0.282114 0)
(0.95451 -0.295141 0)
(0.927962 -0.301327 0)
(0.902796 -0.301865 0)
(0.879707 -0.303404 0)
(0.852023 -0.306045 0)
(0.817789 -0.302791 0)
(0.789205 -0.296264 0)
(0.769294 -0.288706 0)
(1.02546 -0.00265798 0)
(1.02742 -0.0090979 0)
(1.03074 -0.0148461 0)
(1.03517 -0.0216603 0)
(1.04054 -0.0288402 0)
(1.04647 -0.0370817 0)
(1.05266 -0.0463079 0)
(1.05879 -0.056701 0)
(1.06451 -0.0683103 0)
(1.06951 -0.0811972 0)
(1.07352 -0.0953975 0)
(1.0763 -0.11096 0)
(1.07761 -0.127929 0)
(1.07717 -0.146351 0)
(1.07461 -0.166247 0)
(1.06952 -0.187515 0)
(1.06152 -0.20995 0)
(1.05031 -0.233253 0)
(1.03571 -0.257053 0)
(1.0174 -0.280716 0)
(0.994792 -0.30313 0)
(0.967203 -0.323707 0)
(0.934353 -0.343819 0)
(0.896445 -0.362718 0)
(0.854293 -0.372099 0)
(0.815424 -0.367744 0)
(0.789532 -0.359487 0)
(0.768556 -0.35045 0)
(0.744009 -0.337527 0)
(1.02598 -0.00264099 0)
(1.02799 -0.00902419 0)
(1.0314 -0.0147303 0)
(1.03597 -0.0214992 0)
(1.04154 -0.0286354 0)
(1.0477 -0.0368501 0)
(1.0542 -0.046063 0)
(1.0607 -0.0564721 0)
(1.06686 -0.0681362 0)
(1.07239 -0.0811275 0)
(1.07704 -0.0954952 0)
(1.08058 -0.111311 0)
(1.08279 -0.12865 0)
(1.08343 -0.147611 0)
(1.08214 -0.168286 0)
(1.07851 -0.190666 0)
(1.07214 -0.214677 0)
(1.06272 -0.240183 0)
(1.04993 -0.266951 0)
(1.03326 -0.294561 0)
(1.01178 -0.322113 0)
(0.984816 -0.347817 0)
(0.953459 -0.368338 0)
(0.919953 -0.379777 0)
(0.88674 -0.385355 0)
(0.85258 -0.395364 0)
(0.808135 -0.402632 0)
(0.758801 -0.397701 0)
(0.722082 -0.389527 0)
(1.02644 -0.00262436 0)
(1.0285 -0.00895255 0)
(1.032 -0.0146174 0)
(1.03668 -0.0213405 0)
(1.04243 -0.0284316 0)
(1.04881 -0.0366146 0)
(1.05559 -0.0458049 0)
(1.06242 -0.0562154 0)
(1.06899 -0.0679109 0)
(1.07502 -0.0809721 0)
(1.08024 -0.0954569 0)
(1.08449 -0.111454 0)
(1.08755 -0.129064 0)
(1.08922 -0.148421 0)
(1.08917 -0.169682 0)
(1.08701 -0.192923 0)
(1.08234 -0.218191 0)
(1.0749 -0.24552 0)
(1.06432 -0.274852 0)
(1.04988 -0.305944 0)
(1.03051 -0.338112 0)
(1.00481 -0.370058 0)
(0.971586 -0.401669 0)
(0.930521 -0.435571 0)
(0.880799 -0.468538 0)
(0.822594 -0.483444 0)
(0.770113 -0.477911 0)
(0.734018 -0.470896 0)
(0.697776 -0.458777 0)
(1.02685 -0.00260835 0)
(1.02895 -0.00888402 0)
(1.03252 -0.0145093 0)
(1.03731 -0.021187 0)
(1.04323 -0.028233 0)
(1.04979 -0.0363814 0)
(1.05682 -0.0455425 0)
(1.06396 -0.0559437 0)
(1.07091 -0.0676522 0)
(1.07738 -0.0807561 0)
(1.08314 -0.0953189 0)
(1.08803 -0.11144 0)
(1.09189 -0.129237 0)
(1.09452 -0.148872 0)
(1.09566 -0.170553 0)
(1.09492 -0.194431 0)
(1.09197 -0.220654 0)
(1.08661 -0.249418 0)
(1.07849 -0.28086 0)
(1.06671 -0.314906 0)
(1.05003 -0.351261 0)
(1.02696 -0.389231 0)
(0.996597 -0.426798 0)
(0.959998 -0.458819 0)
(0.918362 -0.479018 0)
(0.873866 -0.495419 0)
(0.822183 -0.52237 0)
(0.750919 -0.53552 0)
(0.678987 -0.527051 0)
(1.02721 -0.00259316 0)
(1.02935 -0.00881929 0)
(1.03299 -0.014407 0)
(1.03788 -0.0210408 0)
(1.04393 -0.0280426 0)
(1.05067 -0.0361549 0)
(1.05793 -0.0452827 0)
(1.06534 -0.0556668 0)
(1.07262 -0.0673746 0)
(1.0795 -0.0805003 0)
(1.08575 -0.0951104 0)
(1.09123 -0.111309 0)
(1.09581 -0.129226 0)
(1.09934 -0.149043 0)
(1.10158 -0.171006 0)
(1.1022 -0.195328 0)
(1.10092 -0.222239 0)
(1.09764 -0.252068 0)
(1.09208 -0.285152 0)
(1.08326 -0.321607 0)
(1.06978 -0.361341 0)
(1.05044 -0.404136 0)
(1.02346 -0.449186 0)
(0.985684 -0.49708 0)
(0.936092 -0.553691 0)
(0.872085 -0.612645 0)
(0.788544 -0.638139 0)
(0.70963 -0.632488 0)
(0.652163 -0.627637 0)
(1.02753 -0.0025789 0)
(1.0297 -0.00875886 0)
(1.0334 -0.0143114 0)
(1.03837 -0.0209033 0)
(1.04455 -0.0278626 0)
(1.05144 -0.0359385 0)
(1.05891 -0.0450309 0)
(1.06657 -0.0553927 0)
(1.07415 -0.0670899 0)
(1.08139 -0.0802218 0)
(1.08808 -0.0948557 0)
(1.09409 -0.111096 0)
(1.09933 -0.129082 0)
(1.10368 -0.149006 0)
(1.10693 -0.171139 0)
(1.10883 -0.195745 0)
(1.10914 -0.223124 0)
(1.10785 -0.253703 0)
(1.10481 -0.287974 0)
(1.09912 -0.326274 0)
(1.0892 -0.368671 0)
(1.07383 -0.415443 0)
(1.05198 -0.467228 0)
(1.02134 -0.522174 0)
(0.980534 -0.571745 0)
(0.929456 -0.605744 0)
(0.870467 -0.646437 0)
(0.787824 -0.711437 0)
(0.662922 -0.727815 0)
(1.02782 -0.00256565 0)
(1.03002 -0.00870298 0)
(1.03377 -0.0142228 0)
(1.03882 -0.0207753 0)
(1.0451 -0.0276945 0)
(1.05213 -0.0357346 0)
(1.05977 -0.0447909 0)
(1.06765 -0.0551271 0)
(1.0755 -0.0668068 0)
(1.08307 -0.0799334 0)
(1.09016 -0.0945736 0)
(1.09664 -0.11083 0)
(1.10248 -0.128845 0)
(1.10756 -0.148818 0)
(1.11174 -0.171034 0)
(1.11479 -0.195796 0)
(1.11658 -0.223462 0)
(1.11718 -0.254532 0)
(1.11652 -0.28959 0)
(1.11389 -0.329177 0)
(1.10778 -0.37361 0)
(1.09676 -0.423219 0)
(1.08078 -0.479251 0)
(1.05734 -0.542459 0)
(1.01713 -0.613574 0)
(0.960003 -0.707212 0)
(0.886064 -0.822511 0)
(0.756102 -0.879556 0)
(0.597436 -0.870207 0)
(1.02806 -0.00255344 0)
(1.03029 -0.0086518 0)
(1.03409 -0.0141416 0)
(1.0392 -0.0206574 0)
(1.04559 -0.0275392 0)
(1.05273 -0.0355447 0)
(1.06054 -0.0445654 0)
(1.06861 -0.0548743 0)
(1.07671 -0.0665323 0)
(1.08456 -0.0796459 0)
(1.092 -0.0942796 0)
(1.09891 -0.110534 0)
(1.10527 -0.128549 0)
(1.11101 -0.148527 0)
(1.11601 -0.170764 0)
(1.12011 -0.195586 0)
(1.12325 -0.223394 0)
(1.12561 -0.254753 0)
(1.12717 -0.290291 0)
(1.12736 -0.330657 0)
(1.12506 -0.376477 0)
(1.11872 -0.428153 0)
(1.10799 -0.486982 0)
(1.09292 -0.556859 0)
(1.06892 -0.638266 0)
(1.02984 -0.713993 0)
(0.970018 -0.767919 0)
(0.893861 -0.873759 0)
(0.732343 -1.03379 0)
(1.02828 -0.00254228 0)
(1.03053 -0.00860527 0)
(1.03437 -0.0140675 0)
(1.03955 -0.0205497 0)
(1.04601 -0.0273968 0)
(1.05327 -0.0353697 0)
(1.06121 -0.0443562 0)
(1.06946 -0.0546373 0)
(1.07776 -0.066271 0)
(1.08587 -0.0793663 0)
(1.09362 -0.093985 0)
(1.10091 -0.110223 0)
(1.10773 -0.128218 0)
(1.11405 -0.148172 0)
(1.11979 -0.170383 0)
(1.12483 -0.195193 0)
(1.12917 -0.223034 0)
(1.13313 -0.254518 0)
(1.13674 -0.29031 0)
(1.13947 -0.331062 0)
(1.14065 -0.377623 0)
(1.13911 -0.430726 0)
(1.13387 -0.491219 0)
(1.12707 -0.563172 0)
(1.11714 -0.650733 0)
(1.0831 -0.748526 0)
(1.02544 -0.893949 0)
(0.961003 -1.15087 0)
(0.68718 -1.24923 0)
(0.998617 -0.00170106 0)
(0.998824 -0.00158739 0)
(0.998937 -0.00147365 0)
(0.998957 -0.00136 0)
(0.998872 -0.00124673 0)
(0.998663 -0.00113402 0)
(0.998302 -0.00102229 0)
(0.997757 -0.00091235 0)
(0.996994 -0.000805379 0)
(0.995984 -0.000702884 0)
(0.994712 -0.000606585 0)
(0.993186 -0.00051816 0)
(0.991446 -0.000438871 0)
(0.989563 -0.000369115 0)
(0.987649 -0.000307992 0)
(0.985841 -0.000253022 0)
(0.984288 -0.00020013 0)
(0.983137 -0.000143989 0)
(0.9825 -7.87109e-05 0)
(0.998126 -0.00290385 0)
(0.997925 -0.00279874 0)
(0.997812 -0.00268794 0)
(0.997785 -0.00257261 0)
(0.997859 -0.00245199 0)
(0.998057 -0.00232546 0)
(0.998414 -0.00219237 0)
(0.99897 -0.00205187 0)
(0.999768 -0.00190302 0)
(1.00084 -0.00174485 0)
(1.00221 -0.00157663 0)
(1.00387 -0.00139818 0)
(1.00575 -0.00121033 0)
(1.00777 -0.0010154 0)
(1.00979 -0.00081764 0)
(1.01163 -0.000623306 0)
(1.01311 -0.00044032 0)
(1.01408 -0.000277322 0)
(1.0144 -0.000142217 0)
(0.993607 -0.0108317 0)
(0.993702 -0.0104045 0)
(0.993704 -0.00997983 0)
(0.993614 -0.00955726 0)
(0.993422 -0.00913781 0)
(0.993109 -0.00872188 0)
(0.99265 -0.00830994 0)
(0.992014 -0.00790282 0)
(0.991171 -0.00750161 0)
(0.9901 -0.00710764 0)
(0.988798 -0.00672241 0)
(0.987286 -0.00634734 0)
(0.985626 -0.00598337 0)
(0.983915 -0.00563041 0)
(0.982289 -0.00528682 0)
(0.980904 -0.00494893 0)
(0.979913 -0.00461107 0)
(0.979439 -0.00426607 0)
(0.979546 -0.0039064 0)
(0.988812 -0.0141794 0)
(0.988638 -0.0138376 0)
(0.988545 -0.0134809 0)
(0.988533 -0.0131135 0)
(0.988616 -0.0127365 0)
(0.988816 -0.0123512 0)
(0.989169 -0.0119592 0)
(0.989716 -0.0115612 0)
(0.990499 -0.0111576 0)
(0.991554 -0.0107476 0)
(0.992897 -0.0103289 0)
(0.994511 -0.00989785 0)
(0.996338 -0.00944949 0)
(0.998269 -0.00897842 0)
(1.00015 -0.00848005 0)
(1.00179 -0.00795227 0)
(1.003 -0.00739693 0)
(1.00362 -0.00682066 0)
(1.00356 -0.00623446 0)
(0.982718 -0.022068 0)
(0.982514 -0.021347 0)
(0.982263 -0.0206169 0)
(0.981967 -0.0198772 0)
(0.981617 -0.0191293 0)
(0.981197 -0.0183736 0)
(0.980679 -0.0176104 0)
(0.980028 -0.0168409 0)
(0.979205 -0.0160671 0)
(0.978169 -0.0152927 0)
(0.976893 -0.0145233 0)
(0.975372 -0.0137675 0)
(0.973643 -0.0130361 0)
(0.971792 -0.0123414 0)
(0.969961 -0.011695 0)
(0.968338 -0.0111049 0)
(0.967127 -0.0105721 0)
(0.966509 -0.0100885 0)
(0.966597 -0.00963596 0)
(0.975371 -0.0301219 0)
(0.974998 -0.0295856 0)
(0.9747 -0.029039 0)
(0.974477 -0.0284864 0)
(0.974342 -0.0279281 0)
(0.974318 -0.0273645 0)
(0.974441 -0.0267959 0)
(0.974757 -0.0262218 0)
(0.975321 -0.0256401 0)
(0.976192 -0.0250461 0)
(0.977418 -0.0244314 0)
(0.97902 -0.0237824 0)
(0.980975 -0.0230804 0)
(0.983189 -0.0223024 0)
(0.985492 -0.0214238 0)
(0.987642 -0.0204239 0)
(0.989352 -0.0192924 0)
(0.990347 -0.0180349 0)
(0.990421 -0.0166769 0)
(0.968227 -0.0376684 0)
(0.967809 -0.036577 0)
(0.967374 -0.0354606 0)
(0.966924 -0.0343191 0)
(0.966449 -0.0331535 0)
(0.965933 -0.0319635 0)
(0.965343 -0.030748 0)
(0.964633 -0.0295062 0)
(0.963738 -0.028238 0)
(0.962578 -0.0269455 0)
(0.961067 -0.0256345 0)
(0.959131 -0.0243169 0)
(0.956732 -0.0230124 0)
(0.953905 -0.0217482 0)
(0.950788 -0.0205572 0)
(0.94764 -0.019472 0)
(0.944822 -0.0185163 0)
(0.942743 -0.0176953 0)
(0.941761 -0.0169888 0)
(0.958476 -0.0474652 0)
(0.957712 -0.0466176 0)
(0.957015 -0.0457494 0)
(0.95638 -0.0448655 0)
(0.955813 -0.0439655 0)
(0.955327 -0.0430497 0)
(0.954949 -0.0421194 0)
(0.954724 -0.0411758 0)
(0.954717 -0.0402204 0)
(0.955012 -0.0392533 0)
(0.955714 -0.0382714 0)
(0.956923 -0.0372657 0)
(0.958714 -0.0362181 0)
(0.961088 -0.0350982 0)
(0.963929 -0.0338641 0)
(0.966971 -0.0324665 0)
(0.969795 -0.0308601 0)
(0.971893 -0.0290187 0)
(0.972779 -0.0269515 0)
(0.949624 -0.0557595 0)
(0.948818 -0.0541596 0)
(0.948011 -0.0525126 0)
(0.947207 -0.0508191 0)
(0.946402 -0.0490814 0)
(0.945585 -0.0472989 0)
(0.944734 -0.0454702 0)
(0.943811 -0.0435933 0)
(0.942752 -0.0416649 0)
(0.941467 -0.0396818 0)
(0.93983 -0.0376423 0)
(0.937692 -0.0355501 0)
(0.9349 -0.0334182 0)
(0.931348 -0.0312751 0)
(0.927043 -0.0291676 0)
(0.922185 -0.027159 0)
(0.917218 -0.0253191 0)
(0.912808 -0.0237053 0)
(0.909722 -0.0223391 0)
(0.937536 -0.0659127 0)
(0.936158 -0.0645444 0)
(0.934849 -0.0631314 0)
(0.933596 -0.0616805 0)
(0.932397 -0.0601923 0)
(0.931256 -0.0586681 0)
(0.930185 -0.0571109 0)
(0.929211 -0.0555247 0)
(0.928381 -0.0539152 0)
(0.927776 -0.0522905 0)
(0.927517 -0.0506598 0)
(0.927765 -0.049031 0)
(0.928711 -0.0474063 0)
(0.93053 -0.0457741 0)
(0.933302 -0.0441003 0)
(0.936915 -0.0423234 0)
(0.940977 -0.0403575 0)
(0.944799 -0.038112 0)
(0.947509 -0.0355246 0)
(0.926151 -0.0765787 0)
(0.92465 -0.0743295 0)
(0.923165 -0.0720001 0)
(0.921703 -0.0695945 0)
(0.92027 -0.0671156 0)
(0.918863 -0.0645648 0)
(0.917478 -0.0619432 0)
(0.916099 -0.0592519 0)
(0.914697 -0.0564913 0)
(0.913215 -0.0536603 0)
(0.911554 -0.0507559 0)
(0.909561 -0.0477742 0)
(0.907019 -0.0447137 0)
(0.903673 -0.0415831 0)
(0.899291 -0.0384122 0)
(0.893792 -0.0352629 0)
(0.887407 -0.0322328 0)
(0.880809 -0.0294399 0)
(0.875104 -0.0269867 0)
(0.912222 -0.0880181 0)
(0.909952 -0.0859065 0)
(0.907772 -0.0837091 0)
(0.905674 -0.0814391 0)
(0.903653 -0.0791036 0)
(0.901714 -0.0767108 0)
(0.899865 -0.0742696 0)
(0.898122 -0.0717897 0)
(0.896514 -0.069281 0)
(0.89509 -0.066755 0)
(0.893934 -0.0642252 0)
(0.893183 -0.061708 0)
(0.893041 -0.0592215 0)
(0.89378 -0.0567797 0)
(0.895685 -0.0543808 0)
(0.898943 -0.0519898 0)
(0.903449 -0.0495205 0)
(0.90863 -0.0468349 0)
(0.913386 -0.0437757 0)
(0.897966 -0.102618 0)
(0.895408 -0.0995129 0)
(0.892911 -0.0962878 0)
(0.890494 -0.0929521 0)
(0.88817 -0.0895088 0)
(0.88595 -0.085959 0)
(0.883838 -0.0823042 0)
(0.881832 -0.0785465 0)
(0.879924 -0.0746888 0)
(0.878089 -0.0707342 0)
(0.876275 -0.0666853 0)
(0.874383 -0.0625426 0)
(0.872237 -0.0583037 0)
(0.86956 -0.0539658 0)
(0.865979 -0.0495353 0)
(0.8611 -0.045046 0)
(0.85471 -0.0405829 0)
(0.847081 -0.0362955 0)
(0.839259 -0.032374 0)
(0.882108 -0.117034 0)
(0.878606 -0.113858 0)
(0.875263 -0.11051 0)
(0.872074 -0.107018 0)
(0.869038 -0.103404 0)
(0.86616 -0.0996917 0)
(0.863451 -0.0959063 0)
(0.860924 -0.092074 0)
(0.858601 -0.0882206 0)
(0.856512 -0.0843714 0)
(0.854706 -0.0805514 0)
(0.853267 -0.0767855 0)
(0.852334 -0.0730998 0)
(0.85214 -0.0695217 0)
(0.853023 -0.0660739 0)
(0.855383 -0.062759 0)
(0.859513 -0.0595262 0)
(0.865275 -0.056235 0)
(0.871735 -0.0526434 0)
(0.864814 -0.136506 0)
(0.860682 -0.132156 0)
(0.856719 -0.127622 0)
(0.852953 -0.122917 0)
(0.849417 -0.118054 0)
(0.846135 -0.113036 0)
(0.843123 -0.107871 0)
(0.840391 -0.102566 0)
(0.837941 -0.0971289 0)
(0.83576 -0.0915657 0)
(0.833819 -0.0858823 0)
(0.832053 -0.0800828 0)
(0.830342 -0.0741685 0)
(0.82847 -0.0681372 0)
(0.826072 -0.0619856 0)
(0.822614 -0.0557223 0)
(0.817473 -0.0494025 0)
(0.810261 -0.0431705 0)
(0.801409 -0.0372899 0)
(0.846335 -0.155877 0)
(0.840964 -0.151116 0)
(0.835891 -0.145982 0)
(0.831142 -0.140553 0)
(0.826726 -0.134865 0)
(0.822654 -0.128972 0)
(0.818944 -0.122925 0)
(0.815604 -0.116776 0)
(0.812648 -0.110582 0)
(0.810085 -0.104399 0)
(0.807936 -0.0982874 0)
(0.806236 -0.0923053 0)
(0.805056 -0.0865139 0)
(0.80454 -0.0809749 0)
(0.80495 -0.075749 0)
(0.806718 -0.0708902 0)
(0.81041 -0.0664121 0)
(0.816461 -0.0622377 0)
(0.824591 -0.0581039 0)
(0.825516 -0.181285 0)
(0.818847 -0.174932 0)
(0.812559 -0.168236 0)
(0.80669 -0.161181 0)
(0.801294 -0.153811 0)
(0.796431 -0.146156 0)
(0.792128 -0.138249 0)
(0.788416 -0.130136 0)
(0.785306 -0.121856 0)
(0.782805 -0.113449 0)
(0.780893 -0.104952 0)
(0.779533 -0.0963913 0)
(0.77864 -0.087788 0)
(0.778058 -0.079153 0)
(0.777497 -0.0704887 0)
(0.776443 -0.0617878 0)
(0.77408 -0.0530807 0)
(0.769402 -0.044469 0)
(0.761687 -0.036223 0)
(0.803389 -0.207918 0)
(0.794724 -0.200739 0)
(0.786612 -0.192726 0)
(0.779117 -0.184079 0)
(0.772333 -0.174871 0)
(0.766279 -0.165192 0)
(0.76102 -0.155154 0)
(0.756578 -0.144857 0)
(0.752977 -0.134419 0)
(0.750217 -0.123959 0)
(0.748295 -0.113608 0)
(0.7472 -0.103502 0)
(0.746934 -0.0937875 0)
(0.747535 -0.0846161 0)
(0.74913 -0.0761406 0)
(0.752024 -0.0685254 0)
(0.756811 -0.0618755 0)
(0.764277 -0.0562561 0)
(0.775186 -0.0515438 0)
(0.778388 -0.241746 0)
(0.767255 -0.232277 0)
(0.756773 -0.221999 0)
(0.747173 -0.210891 0)
(0.738485 -0.199002 0)
(0.730884 -0.186469 0)
(0.724424 -0.173388 0)
(0.719187 -0.159909 0)
(0.715206 -0.146168 0)
(0.712512 -0.132315 0)
(0.711098 -0.118485 0)
(0.710938 -0.104803 0)
(0.711961 -0.0913702 0)
(0.714041 -0.078258 0)
(0.716936 -0.0655152 0)
(0.720204 -0.0531132 0)
(0.722962 -0.0410981 0)
(0.724 -0.0295182 0)
(0.721196 -0.0185136 0)
(0.752228 -0.278849 0)
(0.737332 -0.268009 0)
(0.72363 -0.255543 0)
(0.710961 -0.241581 0)
(0.699734 -0.226451 0)
(0.689984 -0.210258 0)
(0.681892 -0.19326 0)
(0.675519 -0.175667 0)
(0.670951 -0.15772 0)
(0.668194 -0.139663 0)
(0.667248 -0.121755 0)
(0.66807 -0.104267 0)
(0.670595 -0.0874887 0)
(0.674748 -0.0717403 0)
(0.68049 -0.0573403 0)
(0.687881 -0.0447369 0)
(0.697498 -0.0341865 0)
(0.709848 -0.0260315 0)
(0.726809 -0.0206509 0)
(0.722619 -0.324949 0)
(0.703666 -0.311298 0)
(0.685409 -0.295329 0)
(0.66899 -0.27768 0)
(0.654321 -0.258186 0)
(0.641807 -0.237283 0)
(0.631556 -0.215219 0)
(0.623756 -0.192319 0)
(0.618441 -0.168915 0)
(0.615693 -0.145338 0)
(0.6155 -0.121918 0)
(0.617841 -0.0989784 0)
(0.622647 -0.0768269 0)
(0.629795 -0.0557172 0)
(0.639057 -0.0359156 0)
(0.650146 -0.0173493 0)
(0.661771 -0.00023461 0)
(0.67326 0.0154944 0)
(0.681117 0.030162 0)
(0.69359 -0.377376 0)
(0.667155 -0.360932 0)
(0.643415 -0.341848 0)
(0.621612 -0.319417 0)
(0.602591 -0.294632 0)
(0.586491 -0.267821 0)
(0.573632 -0.239432 0)
(0.564023 -0.209966 0)
(0.557853 -0.179841 0)
(0.555083 -0.149488 0)
(0.555755 -0.119337 0)
(0.559834 -0.0898199 0)
(0.567265 -0.0614021 0)
(0.577942 -0.0346436 0)
(0.591774 -0.0100072 0)
(0.608293 0.0113772 0)
(0.628685 0.0291302 0)
(0.651923 0.0420878 0)
(0.681347 0.0483909 0)
(0.659269 -0.440308 0)
(0.626328 -0.42112 0)
(0.594877 -0.396315 0)
(0.566824 -0.367896 0)
(0.542553 -0.336274 0)
(0.522501 -0.301976 0)