/*--------------------------------*- C++ -*----------------------------------*\
  =========                 |
  \\      /  F ield         | OpenFOAM: The Open Source CFD Toolbox
   \\    /   O peration     | Website:  https://openfoam.org
    \\  /    A nd           | Version:  10
     \\/     M anipulation  |
\*---------------------------------------------------------------------------*/
FoamFile
{
    format      ascii;
    class       volVectorField;
    location    "0";
    object      U;
}
// * * * * * * * * * * * * * * * * * * * * * * * * * * * * * * * * * * * * * //

dimensions      [0 1 -1 0 0 0 0];

internalField   nonuniform List<vector> 
18483
(
(1 -0.000234138 0)
(1 -0.000837225 0)
(1 -0.00133086 0)
(0.999998 -0.00185616 0)
(0.999996 -0.00235114 0)
(0.999994 -0.00282468 0)
(0.999992 -0.00325721 0)
(0.99999 -0.0036361 0)
(0.999987 -0.00395072 0)
(0.999984 -0.00419605 0)
(0.99998 -0.00437501 0)
(0.999974 -0.00449861 0)
(0.999967 -0.00458528 0)
(0.999957 -0.00467486 0)
(0.999944 -0.00480887 0)
(0.999915 -0.00501942 0)
(0.999818 -0.0052701 0)
(0.999426 -0.0054644 0)
(0.998145 -0.00552223 0)
(0.995291 -0.00538819 0)
(0.991327 -0.00511 0)
(0.988447 -0.0048296 0)
(0.988402 -0.00458515 0)
(0.990545 -0.00431079 0)
(0.993174 -0.00400406 0)
(0.9953 -0.00370406 0)
(0.996744 -0.00343396 0)
(0.997649 -0.0032021 0)
(0.998192 -0.00300804 0)
(1.00071 -0.000654004 0)
(1.00074 -0.00233337 0)
(1.00081 -0.00372929 0)
(1.00087 -0.00524286 0)
(1.00093 -0.00669588 0)
(1.00097 -0.00811804 0)
(1.00097 -0.00944857 0)
(1.00093 -0.0106479 0)
(1.00085 -0.0116772 0)
(1.00072 -0.0125119 0)
(1.00057 -0.0131411 0)
(1.0004 -0.0135785 0)
(1.00026 -0.0138369 0)
(1.00018 -0.0138724 0)
(1.00014 -0.0136183 0)
(1.00012 -0.0130101 0)
(1.00005 -0.0121104 0)
(1.00005 -0.0111319 0)
(1.00067 -0.0102949 0)
(1.00284 -0.00982054 0)
(1.00651 -0.00978152 0)
(1.00946 -0.00992144 0)
(1.00928 -0.0100047 0)
(1.00648 -0.0100801 0)
(1.00323 -0.010177 0)
(1.00076 -0.0102462 0)
(0.99917 -0.0102682 0)
(0.998223 -0.0102457 0)
(0.997669 -0.0101898 0)
(1.00197 -0.000986875 0)
(1.00207 -0.00351407 0)
(1.00227 -0.00565188 0)
(1.00249 -0.00801766 0)
(1.00271 -0.0103379 0)
(1.00287 -0.0126699 0)
(1.00294 -0.0149111 0)
(1.00289 -0.0169938 0)
(1.00271 -0.0188394 0)
(1.0024 -0.0203922 0)
(1.00198 -0.0216148 0)
(1.00149 -0.0224894 0)
(1.00097 -0.0230182 0)
(1.00044 -0.0232505 0)
(0.999864 -0.0233392 0)
(0.999167 -0.0235225 0)
(0.998339 -0.0238949 0)
(0.997322 -0.0242887 0)
(0.995801 -0.0244485 0)
(0.993206 -0.0241535 0)
(0.989531 -0.0233246 0)
(0.98638 -0.022246 0)
(0.985846 -0.0213033 0)
(0.987765 -0.020485 0)
(0.990199 -0.0196881 0)
(0.99198 -0.018962 0)
(0.993037 -0.0183406 0)
(0.993611 -0.0178235 0)
(0.993906 -0.0174003 0)
(1.00342 -0.00125003 0)
(1.00363 -0.00444167 0)
(1.00401 -0.00717684 0)
(1.00445 -0.0102539 0)
(1.00489 -0.0133255 0)
(1.00525 -0.0164789 0)
(1.00545 -0.0195795 0)
(1.00544 -0.0225368 0)
(1.00518 -0.0252337 0)
(1.00467 -0.027579 0)
(1.00394 -0.0295031 0)
(1.00303 -0.0309638 0)
(1.002 -0.0319746 0)
(1.0009 -0.0326228 0)
(0.999798 -0.0329806 0)
(0.99876 -0.0329069 0)
(0.997831 -0.0322376 0)
(0.997033 -0.0311236 0)
(0.99669 -0.029941 0)
(0.997706 -0.0290111 0)
(1.00061 -0.0284649 0)
(1.00369 -0.028108 0)
(1.00397 -0.0276194 0)
(1.00112 -0.0270967 0)
(0.997512 -0.0267436 0)
(0.994796 -0.0264882 0)
(0.993061 -0.0262451 0)
(0.991976 -0.025994 0)
(0.991276 -0.0257334 0)
(1.0049 -0.00146218 0)
(1.00524 -0.00518127 0)
(1.00582 -0.00839188 0)
(1.00652 -0.0120449 0)
(1.00724 -0.0157367 0)
(1.00787 -0.0195878 0)
(1.00829 -0.0234456 0)
(1.0084 -0.0272061 0)
(1.00814 -0.0307191 0)
(1.0075 -0.0338538 0)
(1.00649 -0.0365019 0)
(1.00518 -0.0385961 0)
(1.00364 -0.0401243 0)
(1.00198 -0.0410927 0)
(1.00031 -0.0415307 0)
(0.998672 -0.041591 0)
(0.996993 -0.0415724 0)
(0.995212 -0.0416674 0)
(0.993084 -0.0417264 0)
(0.989858 -0.0414747 0)
(0.984852 -0.0408023 0)
(0.979455 -0.0398902 0)
(0.97706 -0.0390569 0)
(0.978623 -0.0382117 0)
(0.981404 -0.0371162 0)
(0.983322 -0.0359251 0)
(0.984315 -0.0348175 0)
(0.984776 -0.0338421 0)
(0.984957 -0.0330095 0)
(1.00637 -0.001632 0)
(1.00685 -0.00576401 0)
(1.00765 -0.00934418 0)
(1.00864 -0.0134482 0)
(1.0097 -0.0176315 0)
(1.01067 -0.0220532 0)
(1.01139 -0.0265554 0)
(1.01172 -0.0310309 0)
(1.01157 -0.0353061 0)
(1.01086 -0.0392195 0)
(1.00962 -0.0426295 0)
(1.00789 -0.0454359 0)
(1.00578 -0.0475859 0)
(1.00342 -0.0490428 0)
(1.0009 -0.0498356 0)
(0.998315 -0.0500254 0)
(0.995783 -0.0495309 0)
(0.993479 -0.0482776 0)
(0.991845 -0.0465196 0)
(0.991987 -0.0447275 0)
(0.994967 -0.0432088 0)
(0.999085 -0.041929 0)
(0.999734 -0.0406272 0)
(0.995301 -0.039447 0)
(0.989463 -0.0387307 0)
(0.985245 -0.0382862 0)
(0.982614 -0.0378563 0)
(0.9809 -0.0373966 0)
(0.97971 -0.0369061 0)
(1.00783 -0.00176433 0)
(1.00844 -0.00620936 0)
(1.00948 -0.0100687 0)
(1.01078 -0.0145168 0)
(1.01221 -0.0190812 0)
(1.01357 -0.0239657 0)
(1.01466 -0.0290179 0)
(1.0153 -0.0341418 0)
(1.01533 -0.0391564 0)
(1.01466 -0.0438835 0)
(1.01325 -0.0481484 0)
(1.01116 -0.0517995 0)
(1.00852 -0.054732 0)
(1.00549 -0.0568801 0)
(1.00221 -0.058238 0)
(0.998818 -0.058889 0)
(0.995454 -0.0591193 0)
(0.992178 -0.0593358 0)
(0.988799 -0.0596255 0)
(0.984221 -0.0596557 0)
(0.976892 -0.0590987 0)
(0.96811 -0.0580066 0)
(0.963344 -0.0567906 0)
(0.965232 -0.0554548 0)
(0.969206 -0.0536445 0)
(0.971318 -0.0516159 0)
(0.971882 -0.0497518 0)
(0.971808 -0.0481218 0)
(0.971469 -0.0467341 0)
(1.00927 -0.00186495 0)
(1.01001 -0.00654005 0)
(1.01128 -0.0106055 0)
(1.01289 -0.0153125 0)
(1.01471 -0.0201713 0)
(1.01649 -0.0254344 0)
(1.01801 -0.0309653 0)
(1.01904 -0.0366924 0)
(1.01937 -0.04244 0)
(1.01885 -0.0480184 0)
(1.01743 -0.0532144 0)
(1.01514 -0.0578197 0)
(1.01209 -0.0616717 0)
(1.00843 -0.0646593 0)
(1.00429 -0.0667293 0)
(0.99985 -0.0678728 0)
(0.995298 -0.0680528 0)
(0.990948 -0.0670588 0)
(0.987313 -0.0648662 0)
(0.985657 -0.0620458 0)
(0.987845 -0.0593717 0)
(0.992748 -0.0573128 0)
(0.993774 -0.0556149 0)
(0.986982 -0.0540909 0)
(0.977741 -0.0531674 0)
(0.971519 -0.0526578 0)
(0.967852 -0.0520913 0)
(0.965368 -0.0514335 0)
(0.96357 -0.0507127 0)
(1.01064 -0.00194046 0)
(1.01152 -0.00678067 0)
(1.013 -0.010996 0)
(1.01493 -0.015896 0)
(1.01713 -0.0209813 0)
(1.01936 -0.0265549 0)
(1.02136 -0.0325031 0)
(1.02287 -0.0387876 0)
(1.02362 -0.0452474 0)
(1.02342 -0.0516922 0)
(1.02215 -0.0578894 0)
(1.01979 -0.0636 0)
(1.01638 -0.0686202 0)
(1.01207 -0.0728008 0)
(1.00704 -0.076062 0)
(1.00151 -0.0783783 0)
(0.99575 -0.0798771 0)
(0.98998 -0.0809796 0)
(0.98418 -0.0821406 0)
(0.977497 -0.0832157 0)
(0.967944 -0.0834367 0)
(0.95596 -0.0822367 0)
(0.948265 -0.0801404 0)
(0.949975 -0.0779009 0)
(0.955123 -0.0752576 0)
(0.957021 -0.0722723 0)
(0.956596 -0.0695676 0)
(0.955631 -0.0672383 0)
(0.9545 -0.0652541 0)
(1.01194 -0.00199681 0)
(1.01294 -0.00695283 0)
(1.01463 -0.0112748 0)
(1.01685 -0.0163163 0)
(1.01944 -0.0215719 0)
(1.02213 -0.0273949 0)
(1.02465 -0.0336983 0)
(1.0267 -0.0404833 0)
(1.02798 -0.0476168 0)
(1.02823 -0.0549289 0)
(1.02726 -0.0621893 0)
(1.02498 -0.069139 0)
(1.02142 -0.0755149 0)
(1.01672 -0.0810706 0)
(1.0111 -0.0856068 0)
(1.00481 -0.0889481 0)
(0.998102 -0.0909302 0)
(0.991318 -0.0912719 0)
(0.985036 -0.0896498 0)
(0.980458 -0.0863909 0)
(0.979768 -0.0827649 0)
(0.983351 -0.0801782 0)
(0.984541 -0.0788009 0)
(0.976231 -0.0775451 0)
(0.963539 -0.0764335 0)
(0.955102 -0.0758442 0)
(0.950428 -0.0751461 0)
(0.947054 -0.0742296 0)
(0.944525 -0.0732249 0)
(1.01314 -0.00203847 0)
(1.01425 -0.00707264 0)
(1.01614 -0.0114674 0)
(1.01864 -0.016608 0)
(1.0216 -0.0219842 0)
(1.02475 -0.0279981 0)
(1.02781 -0.0345908 0)
(1.03046 -0.041808 0)
(1.03235 -0.049557 0)
(1.03319 -0.0577025 0)
(1.03271 -0.0660269 0)
(1.03077 -0.0742517 0)
(1.02733 -0.0820585 0)
(1.02248 -0.089124 0)
(1.01634 -0.0951909 0)
(1.00909 -0.100097 0)
(1.00092 -0.103819 0)
(0.992092 -0.106631 0)
(0.982991 -0.109221 0)
(0.973528 -0.111977 0)
(0.962172 -0.11404 0)
(0.947968 -0.113919 0)
(0.936337 -0.111349 0)
(0.935002 -0.108053 0)
(0.939821 -0.104811 0)
(0.9411 -0.101039 0)
(0.939155 -0.0974472 0)
(0.936996 -0.0944271 0)
(0.934855 -0.0918238 0)
(1.01423 -0.00206853 0)
(1.01544 -0.00715121 0)
(1.01751 -0.0115911 0)
(1.02028 -0.0167944 0)
(1.0236 -0.022246 0)
(1.0272 -0.0283935 0)
(1.03081 -0.0352064 0)
(1.03409 -0.0427756 0)
(1.03668 -0.0510552 0)
(1.03823 -0.0599531 0)
(1.03844 -0.0692776 0)
(1.03706 -0.0787566 0)
(1.03397 -0.0880604 0)
(1.02915 -0.0968324 0)
(1.02266 -0.104745 0)
(1.01471 -0.111508 0)
(1.00562 -0.116815 0)
(0.995908 -0.1202 0)
(0.986418 -0.121012 0)
(0.978232 -0.119022 0)
(0.973038 -0.115229 0)
(0.972617 -0.111757 0)
(0.973179 -0.110358 0)
(0.965158 -0.109855 0)
(0.949638 -0.108639 0)
(0.937937 -0.107741 0)
(0.931775 -0.10693 0)
(0.927141 -0.105607 0)
(0.923514 -0.104132 0)
(1.01522 -0.00208921 0)
(1.01652 -0.00719656 0)
(1.01875 -0.0116583 0)
(1.02177 -0.016893 0)
(1.02543 -0.022379 0)
(1.02947 -0.0286055 0)
(1.03362 -0.0355681 0)
(1.03755 -0.0434007 0)
(1.04089 -0.0521064 0)
(1.04326 -0.0616454 0)
(1.04428 -0.0718732 0)
(1.04364 -0.0825531 0)
(1.04112 -0.0933644 0)
(1.03662 -0.103909 0)
(1.03015 -0.113741 0)
(1.02186 -0.122417 0)
(1.01193 -0.12959 0)
(1.00063 -0.135159 0)
(0.988377 -0.13973 0)
(0.97552 -0.144367 0)
(0.961643 -0.148998 0)
(0.945408 -0.151646 0)
(0.929186 -0.150263 0)
(0.921353 -0.146121 0)
(0.92318 -0.142033 0)
(0.92377 -0.137666 0)
(0.919891 -0.132935 0)
(0.915936 -0.129011 0)
(0.912404 -0.125634 0)
(1.01611 -0.00210231 0)
(1.0175 -0.00721507 0)
(1.01988 -0.0116793 0)
(1.02312 -0.0169187 0)
(1.02709 -0.0224032 0)
(1.03154 -0.0286589 0)
(1.03622 -0.0357038 0)
(1.0408 -0.0437107 0)
(1.0449 -0.0527334 0)
(1.04813 -0.0627914 0)
(1.05007 -0.073801 0)
(1.05034 -0.0855748 0)
(1.04864 -0.0978119 0)
(1.04477 -0.110098 0)
(1.03861 -0.121944 0)
(1.03014 -0.132867 0)
(1.01945 -0.142496 0)
(1.007 -0.15042 0)
(0.99381 -0.155849 0)
(0.981368 -0.157655 0)
(0.971015 -0.155688 0)
(0.964694 -0.151853 0)
(0.962164 -0.149455 0)
(0.954803 -0.14961 0)
(0.937445 -0.149082 0)
(0.920718 -0.14758 0)
(0.911602 -0.146467 0)
(0.905108 -0.144562 0)
(0.899648 -0.142202 0)
(1.01692 -0.00210936 0)
(1.01838 -0.00721221 0)
(1.0209 -0.0116634 0)
(1.02434 -0.0168853 0)
(1.02859 -0.0223384 0)
(1.03343 -0.0285804 0)
(1.0386 -0.0356471 0)
(1.0438 -0.0437463 0)
(1.04867 -0.0529806 0)
(1.05278 -0.0634296 0)
(1.05572 -0.075075 0)
(1.05705 -0.0877896 0)
(1.05639 -0.10132 0)
(1.05341 -0.115288 0)
(1.04785 -0.129208 0)
(1.03958 -0.142514 0)
(1.02871 -0.15464 0)
(1.01565 -0.165011 0)
(1.00095 -0.173318 0)
(0.984902 -0.180491 0)
(0.967373 -0.187847 0)
(0.948039 -0.194368 0)
(0.92723 -0.196692 0)
(0.91076 -0.193174 0)
(0.905527 -0.187631 0)
(0.904506 -0.1826 0)
(0.898604 -0.176674 0)
(0.891687 -0.171284 0)
(0.886069 -0.166843 0)
(1.01764 -0.00211169 0)
(1.01917 -0.00719285 0)
(1.02181 -0.0116187 0)
(1.02543 -0.0168057 0)
(1.02994 -0.0222039 0)
(1.03512 -0.0283975 0)
(1.04075 -0.0354346 0)
(1.04654 -0.0435536 0)
(1.05215 -0.0529012 0)
(1.05717 -0.0636136 0)
(1.06115 -0.0757388 0)
(1.06364 -0.0892239 0)
(1.06417 -0.103889 0)
(1.06233 -0.119415 0)
(1.05772 -0.135334 0)
(1.05011 -0.151026 0)
(1.03942 -0.165882 0)
(1.02585 -0.179401 0)
(1.00993 -0.190899 0)
(0.992856 -0.19911 0)
(0.976656 -0.202389 0)
(0.963336 -0.200687 0)
(0.954452 -0.197504 0)
(0.94568 -0.197522 0)
(0.927539 -0.19874 0)
(0.904544 -0.197105 0)
(0.889324 -0.195054 0)
(0.879762 -0.192496 0)
(0.871303 -0.188682 0)
(1.0183 -0.00211048 0)
(1.01988 -0.00716134 0)
(1.02262 -0.011553 0)
(1.0264 -0.0166918 0)
(1.03115 -0.0220175 0)
(1.03664 -0.0281362 0)
(1.04269 -0.0351019 0)
(1.04903 -0.0431798 0)
(1.05534 -0.0525539 0)
(1.06124 -0.0634119 0)
(1.06627 -0.0758685 0)
(1.06996 -0.089952 0)
(1.0718 -0.105565 0)
(1.07128 -0.122461 0)
(1.06794 -0.140233 0)
(1.06133 -0.158301 0)
(1.05123 -0.176037 0)
(1.03776 -0.192807 0)
(1.02138 -0.207661 0)
(1.00258 -0.219938 0)
(0.981461 -0.230952 0)
(0.957907 -0.242145 0)
(0.931966 -0.250659 0)
(0.906094 -0.251136 0)
(0.889091 -0.244946 0)
(0.882841 -0.238661 0)
(0.874974 -0.232072 0)
(0.863578 -0.224529 0)
(0.854307 -0.218344 0)
(1.01889 -0.00210674 0)
(1.02052 -0.00712149 0)
(1.02336 -0.011473 0)
(1.02728 -0.0165543 0)
(1.03223 -0.0217954 0)
(1.038 -0.0278198 0)
(1.04443 -0.0346826 0)
(1.05127 -0.042671 0)
(1.05824 -0.0519997 0)
(1.06496 -0.062903 0)
(1.07101 -0.0755574 0)
(1.07591 -0.0900704 0)
(1.07912 -0.106431 0)
(1.08008 -0.12448 0)
(1.07823 -0.143915 0)
(1.073 -0.164236 0)
(1.06402 -0.184792 0)
(1.05124 -0.204908 0)
(1.03476 -0.223718 0)
(1.01488 -0.239971 0)
(0.993083 -0.251869 0)
(0.972313 -0.257246 0)
(0.95496 -0.256449 0)
(0.940589 -0.255697 0)
(0.921051 -0.259128 0)
(0.892037 -0.25993 0)
(0.86609 -0.256702 0)
(0.850148 -0.253286 0)
(0.837011 -0.247821 0)
(1.01943 -0.00210128 0)
(1.0211 -0.00707646 0)
(1.02402 -0.0113844 0)
(1.02806 -0.0164025 0)
(1.0332 -0.0215512 0)
(1.03922 -0.0274687 0)
(1.04598 -0.034206 0)
(1.05329 -0.0420691 0)
(1.06085 -0.0512967 0)
(1.06834 -0.0621624 0)
(1.07536 -0.0748973 0)
(1.08145 -0.0896816 0)
(1.08606 -0.106594 0)
(1.08859 -0.12557 0)
(1.08841 -0.146424 0)
(1.08489 -0.168768 0)
(1.07748 -0.192001 0)
(1.06587 -0.215478 0)
(1.04993 -0.2383 0)
(1.02978 -0.259013 0)
(1.00587 -0.276963 0)
(0.978402 -0.293991 0)
(0.947105 -0.310716 0)
(0.912191 -0.321221 0)
(0.879912 -0.319203 0)
(0.860952 -0.311159 0)
(0.849089 -0.304248 0)
(0.832182 -0.294981 0)
(0.815915 -0.285741 0)
(1.01992 -0.00209473 0)
(1.02163 -0.00702873 0)
(1.02462 -0.0112918 0)
(1.02876 -0.0162437 0)
(1.03407 -0.0212964 0)
(1.0403 -0.0270994 0)
(1.04737 -0.0336966 0)
(1.05508 -0.0414094 0)
(1.06319 -0.0504944 0)
(1.0714 -0.0612568 0)
(1.07934 -0.0739738 0)
(1.08657 -0.0888903 0)
(1.09257 -0.106173 0)
(1.09669 -0.125854 0)
(1.0983 -0.147859 0)
(1.0967 -0.171949 0)
(1.09121 -0.197637 0)
(1.08129 -0.224314 0)
(1.06657 -0.251142 0)
(1.04682 -0.276776 0)
(1.02243 -0.299562 0)
(0.995471 -0.316908 0)
(0.968893 -0.325391 0)
(0.944437 -0.3269 0)
(0.920334 -0.331695 0)
(0.8872 -0.338985 0)
(0.847299 -0.33787 0)
(0.817473 -0.333026 0)
(0.796537 -0.326653 0)
(1.02037 -0.00208758 0)
(1.0221 -0.00698023 0)
(1.02516 -0.0111986 0)
(1.02939 -0.0160836 0)
(1.03484 -0.0210397 0)
(1.04126 -0.0267254 0)
(1.0486 -0.0331741 0)
(1.05668 -0.0407206 0)
(1.06528 -0.0496335 0)
(1.07415 -0.0602425 0)
(1.08294 -0.0728643 0)
(1.09125 -0.0877981 0)
(1.09857 -0.105292 0)
(1.10428 -0.125469 0)
(1.10771 -0.148362 0)
(1.10816 -0.173893 0)
(1.10488 -0.201718 0)
(1.09712 -0.231298 0)
(1.08424 -0.261917 0)
(1.06575 -0.292305 0)
(1.04165 -0.320797 0)
(1.01223 -0.34715 0)
(0.976851 -0.373694 0)
(0.934592 -0.399036 0)
(0.887448 -0.411615 0)
(0.847122 -0.406735 0)
(0.822617 -0.398735 0)
(0.799681 -0.390522 0)
(0.772106 -0.377501 0)
(1.02076 -0.00208019 0)
(1.02253 -0.00693242 0)
(1.02564 -0.0111074 0)
(1.02995 -0.0159266 0)
(1.03552 -0.0207878 0)
(1.04211 -0.0263566 0)
(1.04969 -0.0326539 0)
(1.05809 -0.0400254 0)
(1.06714 -0.048747 0)
(1.0766 -0.0591677 0)
(1.08617 -0.0716367 0)
(1.09547 -0.0864976 0)
(1.10404 -0.104067 0)
(1.11129 -0.124557 0)
(1.11652 -0.148093 0)
(1.1191 -0.174749 0)
(1.1182 -0.204348 0)
(1.11293 -0.236464 0)
(1.10241 -0.270529 0)
(1.08592 -0.305543 0)
(1.06313 -0.340041 0)
(1.03446 -0.372091 0)
(1.0017 -0.397502 0)
(0.967051 -0.410972 0)
(0.932666 -0.417855 0)
(0.894856 -0.432758 0)
(0.843181 -0.444155 0)
(0.789287 -0.440125 0)
(0.751523 -0.433356 0)
(1.02112 -0.00207286 0)
(1.02291 -0.00688635 0)
(1.02607 -0.0110202 0)
(1.03044 -0.0157757 0)
(1.03613 -0.0205457 0)
(1.04285 -0.0260006 0)
(1.05064 -0.0321475 0)
(1.05933 -0.0393416 0)
(1.06877 -0.0478618 0)
(1.07877 -0.0580717 0)
(1.08905 -0.0703466 0)
(1.09926 -0.0850661 0)
(1.109 -0.102602 0)
(1.1177 -0.123246 0)
(1.1247 -0.147208 0)
(1.12937 -0.174688 0)
(1.13094 -0.205689 0)
(1.12838 -0.239925 0)
(1.12062 -0.276988 0)
(1.1068 -0.316138 0)
(1.08648 -0.356082 0)
(1.05919 -0.395216 0)
(1.02362 -0.433646 0)
(0.97817 -0.474806 0)
(0.922236 -0.514508 0)
(0.858458 -0.53122 0)
(0.804712 -0.524056 0)
(0.768141 -0.517946 0)
(0.727734 -0.505757 0)
(1.02144 -0.00206577 0)
(1.02325 -0.00684277 0)
(1.02645 -0.010938 0)
(1.03088 -0.0156331 0)
(1.03666 -0.0203168 0)
(1.0435 -0.0256626 0)
(1.05147 -0.0316634 0)
(1.06041 -0.0386825 0)
(1.0702 -0.0469984 0)
(1.08067 -0.0569853 0)
(1.09159 -0.0690383 0)
(1.10264 -0.0835669 0)
(1.11345 -0.100984 0)
(1.12352 -0.121655 0)
(1.1322 -0.145861 0)
(1.1389 -0.173902 0)
(1.14292 -0.205951 0)
(1.14316 -0.241878 0)
(1.13845 -0.28144 0)
(1.12779 -0.324148 0)
(1.11061 -0.369159 0)
(1.08614 -0.415374 0)
(1.05339 -0.460268 0)
(1.01362 -0.497354 0)
(0.969063 -0.519225 0)
(0.921691 -0.53787 0)
(0.863715 -0.571165 0)
(0.78388 -0.586626 0)
(0.708122 -0.577989 0)
(1.02172 -0.00205908 0)
(1.02355 -0.00680215 0)
(1.02678 -0.0108617 0)
(1.03126 -0.0155001 0)
(1.03712 -0.0201032 0)
(1.04407 -0.025346 0)
(1.0522 -0.0312075 0)
(1.06135 -0.0380576 0)
(1.07145 -0.0461715 0)
(1.08234 -0.0559315 0)
(1.09382 -0.0677463 0)
(1.10564 -0.0820501 0)
(1.11743 -0.0992874 0)
(1.12875 -0.119882 0)
(1.13901 -0.144183 0)
(1.14763 -0.172565 0)
(1.15401 -0.205343 0)
(1.15706 -0.242542 0)
(1.15553 -0.284093 0)
(1.14836 -0.329763 0)
(1.13491 -0.378987 0)
(1.11453 -0.431022 0)
(1.08503 -0.484413 0)
(1.04261 -0.539914 0)
(0.986569 -0.604951 0)
(0.91478 -0.671104 0)
(0.824422 -0.696232 0)
(0.743235 -0.688134 0)
(0.683139 -0.684359 0)
(1.02197 -0.00205284 0)
(1.02381 -0.00676474 0)
(1.02708 -0.0107916 0)
(1.03159 -0.0153776 0)
(1.03753 -0.0199061 0)
(1.04457 -0.0250528 0)
(1.05283 -0.0307834 0)
(1.06217 -0.0374729 0)
(1.07254 -0.0453914 0)
(1.08379 -0.0549272 0)
(1.09578 -0.0664976 0)
(1.10827 -0.0805567 0)
(1.12094 -0.0975738 0)
(1.1334 -0.118017 0)
(1.14511 -0.142296 0)
(1.15554 -0.170841 0)
(1.16415 -0.20408 0)
(1.1699 -0.242178 0)
(1.17155 -0.285227 0)
(1.16809 -0.333254 0)
(1.15874 -0.385902 0)
(1.14278 -0.442927 0)
(1.11844 -0.504297 0)
(1.08311 -0.56741 0)
(1.03725 -0.622369 0)
(0.981514 -0.657461 0)
(0.916977 -0.701579 0)
(0.825197 -0.774128 0)
(0.690386 -0.78899 0)
(1.02219 -0.00204712 0)
(1.02405 -0.00673065 0)
(1.02734 -0.0107278 0)
(1.03189 -0.0152657 0)
(1.03788 -0.019726 0)
(1.045 -0.024784 0)
(1.05338 -0.0303929 0)
(1.06288 -0.036932 0)
(1.07348 -0.0446649 0)
(1.08506 -0.0539839 0)
(1.09749 -0.0653118 0)
(1.11057 -0.0791172 0)
(1.12403 -0.0958896 0)
(1.1375 -0.116129 0)
(1.15054 -0.140295 0)
(1.16264 -0.168864 0)
(1.17331 -0.202344 0)
(1.18163 -0.241029 0)
(1.18633 -0.285127 0)
(1.18658 -0.334908 0)
(1.1816 -0.390297 0)
(1.17041 -0.451093 0)
(1.15221 -0.517819 0)
(1.124 -0.590439 0)
(1.07675 -0.669988 0)
(1.01096 -0.773627 0)
(0.927453 -0.897293 0)
(0.787427 -0.950766 0)
(0.623341 -0.937158 0)
(1.02239 -0.0020419 0)
(1.02425 -0.00669985 0)
(1.02756 -0.0106702 0)
(1.03215 -0.0151644 0)
(1.03819 -0.0195628 0)
(1.04537 -0.0245397 0)
(1.05386 -0.0300368 0)
(1.0635 -0.0364367 0)
(1.0743 -0.0439958 0)
(1.08615 -0.0531092 0)
(1.09897 -0.0642023 0)
(1.11257 -0.0777546 0)
(1.12673 -0.0942706 0)
(1.14111 -0.114273 0)
(1.15533 -0.138262 0)
(1.16895 -0.166751 0)
(1.18152 -0.200306 0)
(1.19221 -0.239329 0)
(1.19978 -0.284116 0)
(1.20352 -0.335091 0)
(1.203 -0.392526 0)
(1.19692 -0.456244 0)
(1.18419 -0.526812 0)
(1.16435 -0.607556 0)
(1.1336 -0.698481 0)
(1.08755 -0.780149 0)
(1.01993 -0.83395 0)
(0.933888 -0.944403 0)
(0.759835 -1.11117 0)
(1.02256 -0.00203721 0)
(1.02443 -0.00667227 0)
(1.02776 -0.0106185 0)
(1.03237 -0.0150734 0)
(1.03845 -0.019416 0)
(1.0457 -0.0243193 0)
(1.05427 -0.0297148 0)
(1.06403 -0.0359871 0)
(1.075 -0.0433856 0)
(1.0871 -0.0523069 0)
(1.10025 -0.063177 0)
(1.11431 -0.076483 0)
(1.12908 -0.0927408 0)
(1.14427 -0.11249 0)
(1.15954 -0.13626 0)
(1.17451 -0.164594 0)
(1.18879 -0.198095 0)
(1.20165 -0.237256 0)
(1.21189 -0.282453 0)
(1.21883 -0.334161 0)
(1.22249 -0.392938 0)
(1.22168 -0.458901 0)
(1.21462 -0.532103 0)
(1.20348 -0.616115 0)
(1.18739 -0.714438 0)
(1.1435 -0.820759 0)
(1.0728 -0.978223 0)
(0.996332 -1.24694 0)
(0.701985 -1.32726 0)
(0.998509 -0.00284528 0)
(0.998696 -0.00269531 0)
(0.998786 -0.00254448 0)
(0.998782 -0.00239269 0)
(0.998681 -0.00224014 0)
(0.998473 -0.00208703 0)
(0.998138 -0.00193406 0)
(0.997653 -0.00178264 0)
(0.996991 -0.00163505 0)
(0.996128 -0.00149459 0)
(0.995051 -0.00136565 0)
(0.993762 -0.00125352 0)
(0.992287 -0.00116405 0)
(0.990682 -0.00110292 0)
(0.989034 -0.00107471 0)
(0.987458 -0.00108183 0)
(0.986088 -0.00112354 0)
(0.985056 -0.0011954 0)
(0.984477 -0.00128917 0)
(0.997343 -0.0101159 0)
(0.997142 -0.0100344 0)
(0.997031 -0.00994843 0)
(0.997005 -0.00986079 0)
(0.997073 -0.00977203 0)
(0.997256 -0.00968264 0)
(0.997586 -0.00959265 0)
(0.998106 -0.00950112 0)
(0.998864 -0.00940582 0)
(0.999907 -0.00930272 0)
(1.00127 -0.00918577 0)
(1.00298 -0.0090467 0)
(1.005 -0.0088755 0)
(1.00726 -0.00866139 0)
(1.00965 -0.00839445 0)
(1.01198 -0.00806771 0)
(1.01405 -0.00767939 0)
(1.01564 -0.00723443 0)
(1.01656 -0.00674506 0)
(0.994049 -0.0170492 0)
(0.994108 -0.0167239 0)
(0.994107 -0.0163911 0)
(0.994045 -0.0160495 0)
(0.993917 -0.0156992 0)
(0.993703 -0.0153398 0)
(0.993373 -0.0149708 0)
(0.992882 -0.0145923 0)
(0.992179 -0.0142054 0)
(0.991203 -0.0138125 0)
(0.9899 -0.013418 0)
(0.988231 -0.0130282 0)
(0.986191 -0.0126516 0)
(0.983827 -0.0122977 0)
(0.981251 -0.0119753 0)
(0.978645 -0.0116908 0)
(0.976242 -0.0114459 0)
(0.974304 -0.0112355 0)
(0.973067 -0.0110484 0)
(0.990798 -0.0254747 0)
(0.990433 -0.0252185 0)
(0.990134 -0.024958 0)
(0.989896 -0.0246947 0)
(0.989725 -0.0244268 0)
(0.989639 -0.0241524 0)
(0.989673 -0.0238695 0)
(0.989873 -0.023575 0)
(0.990301 -0.0232649 0)
(0.991027 -0.0229337 0)
(0.99212 -0.0225741 0)
(0.993629 -0.0221769 0)
(0.995564 -0.0217314 0)
(0.997871 -0.0212266 0)
(1.00042 -0.0206536 0)
(1.00299 -0.0200079 0)
(1.0053 -0.0192921 0)
(1.00706 -0.0185176 0)
(1.008 -0.0177042 0)
(0.984997 -0.032297 0)
(0.984957 -0.0316271 0)
(0.984849 -0.03094 0)
(0.984671 -0.0302353 0)
(0.98441 -0.0295146 0)
(0.984043 -0.0287784 0)
(0.98353 -0.0280274 0)
(0.98282 -0.0272629 0)
(0.981843 -0.0264875 0)
(0.980523 -0.0257051 0)
(0.97878 -0.0249219 0)
(0.976553 -0.024146 0)
(0.973825 -0.0233876 0)
(0.970651 -0.0226572 0)
(0.967183 -0.0219637 0)
(0.963677 -0.0213117 0)
(0.960475 -0.020699 0)
(0.957951 -0.0201158 0)
(0.956436 -0.0195455 0)
(0.978824 -0.0364073 0)
(0.97808 -0.0358992 0)
(0.977399 -0.035365 0)
(0.97677 -0.0348078 0)
(0.976195 -0.0342262 0)
(0.975693 -0.0336201 0)
(0.9753 -0.0329901 0)
(0.975071 -0.0323366 0)
(0.975082 -0.0316601 0)
(0.975424 -0.0309604 0)
(0.97619 -0.0302367 0)
(0.977459 -0.0294869 0)
(0.979258 -0.028708 0)
(0.981535 -0.0278972 0)
(0.984131 -0.0270534 0)
(0.986777 -0.0261795 0)
(0.98912 -0.0252838 0)
(0.990791 -0.0243802 0)
(0.99148 -0.0234856 0)
(0.971037 -0.0455517 0)
(0.970556 -0.0444467 0)
(0.970014 -0.0433233 0)
(0.969417 -0.0421834 0)
(0.968762 -0.0410315 0)
(0.968032 -0.039871 0)
(0.9672 -0.0387054 0)
(0.966222 -0.0375385 0)
(0.965036 -0.0363746 0)
(0.963566 -0.0352183 0)
(0.96173 -0.0340748 0)
(0.959459 -0.0329499 0)
(0.956732 -0.0318488 0)
(0.953605 -0.0307756 0)
(0.950248 -0.0297308 0)
(0.946944 -0.0287096 0)
(0.944066 -0.0277005 0)
(0.941998 -0.0266862 0)
(0.941036 -0.0256474 0)
(0.962186 -0.049966 0)
(0.960999 -0.0491984 0)
(0.959897 -0.0483851 0)
(0.958872 -0.047532 0)
(0.957931 -0.0466388 0)
(0.957094 -0.0457069 0)
(0.956398 -0.0447386 0)
(0.955897 -0.0437359 0)
(0.955665 -0.0427011 0)
(0.955788 -0.0416358 0)
(0.956355 -0.0405402 0)
(0.957434 -0.0394131 0)
(0.959036 -0.0382518 0)
(0.961081 -0.0370524 0)
(0.963373 -0.0358121 0)
(0.965596 -0.0345316 0)
(0.967368 -0.0332169 0)
(0.968314 -0.0318804 0)
(0.968181 -0.0305373 0)
(0.953385 -0.06357 0)
(0.95229 -0.0619972 0)
(0.951168 -0.0604007 0)
(0.950034 -0.0587826 0)
(0.948895 -0.0571481 0)
(0.947745 -0.0555004 0)
(0.946563 -0.053842 0)
(0.945312 -0.0521751 0)
(0.943936 -0.0505016 0)
(0.942356 -0.0488233 0)
(0.940483 -0.0471424 0)
(0.938236 -0.0454623 0)
(0.935577 -0.0437882 0)
(0.93255 -0.0421269 0)
(0.92932 -0.0404849 0)
(0.926184 -0.0388662 0)
(0.923525 -0.037268 0)
(0.921724 -0.0356786 0)
(0.921037 -0.0340794 0)
(0.942539 -0.0721709 0)
(0.940809 -0.071083 0)
(0.939188 -0.0699242 0)
(0.937669 -0.0687028 0)
(0.936258 -0.0674196 0)
(0.934971 -0.0660774 0)
(0.933837 -0.0646796 0)
(0.932899 -0.06323 0)
(0.932218 -0.0617326 0)
(0.931868 -0.0601905 0)
(0.931932 -0.058605 0)
(0.932477 -0.056974 0)
(0.933526 -0.05529 0)
(0.93501 -0.0535392 0)
(0.936736 -0.0517026 0)
(0.938382 -0.04976 0)
(0.939537 -0.0476981 0)
(0.939808 -0.0455181 0)
(0.93895 -0.0432392 0)
(0.932869 -0.0896061 0)
(0.930999 -0.0875223 0)
(0.929142 -0.0853934 0)
(0.927321 -0.0832214 0)
(0.925545 -0.0810084 0)
(0.923816 -0.078754 0)
(0.922122 -0.0764566 0)
(0.920432 -0.0741138 0)
(0.918695 -0.0717223 0)
(0.916833 -0.0692792 0)
(0.914744 -0.0667825 0)
(0.912315 -0.0642346 0)
(0.909457 -0.0616446 0)
(0.906154 -0.059032 0)
(0.902516 -0.0564262 0)
(0.898823 -0.0538632 0)
(0.895502 -0.051374 0)
(0.893031 -0.0489711 0)
(0.89177 -0.0466385 0)
(0.920643 -0.102581 0)
(0.918095 -0.10096 0)
(0.915671 -0.0992179 0)
(0.913362 -0.0973648 0)
(0.911167 -0.0954082 0)
(0.909095 -0.0933555 0)
(0.907162 -0.0912158 0)
(0.905397 -0.0889985 0)
(0.903844 -0.0867134 0)
(0.902568 -0.0843704 0)
(0.901653 -0.081978 0)
(0.901197 -0.0795403 0)
(0.90128 -0.0770527 0)
(0.901921 -0.0744964 0)
(0.903016 -0.0718345 0)
(0.904283 -0.0690153 0)
(0.905275 -0.0659849 0)
(0.905465 -0.0627122 0)
(0.904429 -0.0592126 0)
(0.909161 -0.122693 0)
(0.906178 -0.119913 0)
(0.903255 -0.117039 0)
(0.900418 -0.114081 0)
(0.897685 -0.111036 0)
(0.895061 -0.1079 0)
(0.892543 -0.104668 0)
(0.890113 -0.101337 0)
(0.887736 -0.0979022 0)
(0.885344 -0.0943595 0)
(0.882839 -0.0907058 0)
(0.880081 -0.0869418 0)
(0.876913 -0.0830774 0)
(0.873202 -0.0791405 0)
(0.868921 -0.0751843 0)
(0.864245 -0.0712898 0)
(0.859624 -0.0675529 0)
(0.855737 -0.0640528 0)
(0.85329 -0.0608105 0)
(0.895365 -0.139788 0)
(0.89151 -0.137215 0)
(0.887818 -0.134432 0)
(0.884284 -0.131454 0)
(0.8809 -0.128306 0)
(0.877677 -0.125013 0)
(0.874626 -0.121599 0)
(0.871765 -0.118089 0)
(0.869123 -0.114507 0)
(0.866747 -0.110879 0)
(0.864713 -0.107231 0)
(0.863133 -0.103588 0)
(0.862153 -0.0999667 0)
(0.861921 -0.0963666 0)
(0.862519 -0.0927551 0)
(0.863842 -0.0890535 0)
(0.865486 -0.0851382 0)
(0.866729 -0.080876 0)
(0.866703 -0.0761937 0)
(0.880921 -0.162776 0)
(0.87625 -0.158899 0)
(0.871744 -0.154834 0)
(0.867419 -0.150598 0)
(0.863321 -0.146198 0)
(0.859457 -0.141627 0)
(0.855836 -0.136892 0)
(0.852458 -0.131997 0)
(0.849305 -0.126947 0)
(0.846338 -0.121749 0)
(0.843482 -0.116403 0)
(0.840606 -0.110913 0)
(0.837514 -0.105279 0)
(0.833949 -0.0995172 0)
(0.829648 -0.0936721 0)
(0.82448 -0.0878462 0)
(0.818651 -0.0822143 0)
(0.812903 -0.0769993 0)
(0.808487 -0.0723897 0)
(0.864625 -0.184819 0)
(0.858694 -0.180661 0)
(0.853008 -0.176085 0)
(0.847644 -0.171177 0)
(0.842575 -0.16596 0)
(0.837832 -0.160506 0)
(0.833434 -0.15486 0)
(0.829391 -0.149076 0)
(0.825724 -0.14321 0)
(0.82245 -0.137317 0)
(0.819608 -0.131458 0)
(0.817269 -0.125696 0)
(0.815565 -0.120098 0)
(0.814713 -0.114727 0)
(0.815001 -0.10962 0)
(0.816683 -0.104756 0)
(0.81975 -0.0999981 0)
(0.823592 -0.0950792 0)
(0.82683 -0.0896584 0)
(0.846208 -0.212536 0)
(0.83874 -0.206722 0)
(0.831726 -0.200567 0)
(0.825071 -0.193989 0)
(0.818896 -0.187075 0)
(0.813236 -0.179827 0)
(0.808108 -0.17229 0)
(0.803548 -0.164512 0)
(0.799551 -0.156534 0)
(0.79611 -0.148405 0)
(0.793182 -0.140163 0)
(0.790684 -0.131839 0)
(0.788455 -0.123451 0)
(0.786224 -0.115007 0)
(0.78357 -0.106514 0)
(0.77995 -0.0980166 0)
(0.774894 -0.0896752 0)
(0.768479 -0.0818184 0)
(0.761962 -0.0749629 0)
(0.825941 -0.24156 0)
(0.816503 -0.234954 0)
(0.807428 -0.227371 0)
(0.799031 -0.219172 0)
(0.791307 -0.210351 0)
(0.784296 -0.201035 0)
(0.778085 -0.191339 0)
(0.772679 -0.18136 0)
(0.768114 -0.171229 0)
(0.764389 -0.161066 0)
(0.761506 -0.151006 0)
(0.759466 -0.14119 0)
(0.758304 -0.131773 0)
(0.758133 -0.122915 0)
(0.759226 -0.114788 0)
(0.762062 -0.107546 0)
(0.767263 -0.101235 0)
(0.775109 -0.0956988 0)
(0.784664 -0.0903223 0)
(0.802841 -0.27752 0)
(0.790448 -0.268457 0)
(0.778964 -0.258682 0)
(0.768288 -0.24793 0)
(0.758534 -0.236353 0)
(0.749913 -0.224093 0)
(0.742423 -0.211227 0)
(0.736189 -0.197943 0)
(0.731219 -0.184368 0)
(0.727544 -0.170663 0)
(0.725135 -0.156971 0)
(0.723941 -0.14342 0)
(0.723843 -0.130117 0)
(0.724634 -0.117136 0)
(0.725937 -0.10451 0)
(0.727095 -0.0922225 0)
(0.727034 -0.0803383 0)
(0.724514 -0.069 0)
(0.71883 -0.0588697 0)
(0.777742 -0.31701 0)
(0.76179 -0.306651 0)
(0.746766 -0.294404 0)
(0.732835 -0.280646 0)
(0.720439 -0.265705 0)
(0.709497 -0.24961 0)
(0.700296 -0.232719 0)
(0.692843 -0.2152 0)
(0.68724 -0.197334 0)
(0.68348 -0.179376 0)
(0.681563 -0.161603 0)
(0.681433 -0.144306 0)
(0.683033 -0.127793 0)
(0.686317 -0.1124 0)
(0.691334 -0.0984782 0)
(0.698353 -0.0864537 0)
(0.708154 -0.0766087 0)
(0.721791 -0.0693737 0)
(0.740816 -0.0644596 0)
(0.749429 -0.365703 0)
(0.728745 -0.352259 0)
(0.708961 -0.336428 0)
(0.691196 -0.318911 0)
(0.675106 -0.299324 0)
(0.661358 -0.27838 0)
(0.649916 -0.256182 0)
(0.64103 -0.233148 0)
(0.634713 -0.209608 0)
(0.631052 -0.185904 0)
(0.63001 -0.162382 0)
(0.63156 -0.139372 0)
(0.635593 -0.117181 0)
(0.641933 -0.0960688 0)
(0.650251 -0.0762546 0)
(0.659997 -0.057703 0)
(0.669839 -0.0406552 0)
(0.678396 -0.024839 0)
(0.680966 -0.0105043 0)
(0.720715 -0.421217 0)
(0.692412 -0.404632 0)
(0.667092 -0.385624 0)
(0.643492 -0.362808 0)
(0.623041 -0.337833 0)
(0.605535 -0.310625 0)
(0.591437 -0.281847 0)
(0.580719 -0.251983 0)
(0.573576 -0.22145 0)
(0.569938 -0.190734 0)
(0.569859 -0.160269 0)
(0.573265 -0.130527 0)
(0.58009 -0.102011 0)
(0.590219 -0.0753189 0)
(0.603552 -0.0510467 0)
(0.619955 -0.0303117 0)
(0.640502 -0.0134294 0)
(0.66469 -0.00203415 0)
(0.698415 0.00256938 0)
(0.686383 -0.487037 0)
(0.651556 -0.468218 0)
(0.617726 -0.442651 0)
(0.587977 -0.413931 0)
(0.561972 -0.381585 0)
(0.54043 -0.346587 0)
(0.52323 -0.309844 0)
(0.510698 -0.271737 0)
(0.502563 -0.232978 0)
(0.499011 -0.193987 0)
(0.499916 -0.155253 0)
(0.505343 -0.117261 0)
(0.515289 -0.0805284 0)
(0.529757 -0.0455917 0)