/*--------------------------------*- C++ -*----------------------------------*\
  =========                 |
  \\      /  F ield         | OpenFOAM: The Open Source CFD Toolbox
   \\    /   O peration     | Website:  https://openfoam.org
    \\  /    A nd           | Version:  10
     \\/     M anipulation  |
\*---------------------------------------------------------------------------*/
FoamFile
{
    format      ascii;
    class       volVectorField;
    location    "0";
    object      U;
}
// * * * * * * * * * * * * * * * * * * * * * * * * * * * * * * * * * * * * * //

dimensions      [0 1 -1 0 0 0 0];

internalField   nonuniform List<vector> 
18483
(
(0.999998 -0.00022706 0)
(0.999998 -0.000805851 0)
(0.999998 -0.00126181 0)
(0.999998 -0.00172877 0)
(0.999998 -0.00214521 0)
(0.999998 -0.00251847 0)
(0.999997 -0.00283341 0)
(0.999996 -0.00308156 0)
(0.999993 -0.00325842 0)
(0.999985 -0.00336667 0)
(0.999971 -0.00342126 0)
(0.999945 -0.00345411 0)
(0.999901 -0.00351688 0)
(0.999833 -0.00368708 0)
(0.999731 -0.00402738 0)
(0.999561 -0.00453626 0)
(0.999179 -0.00511582 0)
(0.998092 -0.00561314 0)
(0.995332 -0.00585136 0)
(0.99048 -0.00565161 0)
(0.985585 -0.00507627 0)
(0.984115 -0.00440171 0)
(0.986708 -0.00379169 0)
(0.99081 -0.00326205 0)
(0.994233 -0.00282896 0)
(0.996448 -0.00249322 0)
(0.997713 -0.00223388 0)
(0.998374 -0.00203157 0)
(0.998677 -0.00187057 0)
(1.00067 -0.000674855 0)
(1.00068 -0.00238105 0)
(1.00072 -0.00373217 0)
(1.00075 -0.00513048 0)
(1.00076 -0.00638533 0)
(1.00074 -0.0075267 0)
(1.00068 -0.00850718 0)
(1.00058 -0.00930019 0)
(1.00045 -0.0098855 0)
(1.00029 -0.0102595 0)
(1.00014 -0.0104339 0)
(1.00006 -0.0104269 0)
(1.00009 -0.0102199 0)
(1.00029 -0.0097096 0)
(1.00065 -0.00879145 0)
(1.00107 -0.00746975 0)
(1.00148 -0.00593478 0)
(1.00201 -0.00448571 0)
(1.00316 -0.00346051 0)
(1.00562 -0.0031973 0)
(1.00864 -0.00364972 0)
(1.00955 -0.00425503 0)
(1.00716 -0.00457877 0)
(1.00351 -0.00468001 0)
(1.00067 -0.00465998 0)
(0.999039 -0.00455931 0)
(0.998218 -0.00442107 0)
(0.997834 -0.00426995 0)
(0.997666 -0.00412073 0)
(1.00194 -0.00108319 0)
(1.00199 -0.00380387 0)
(1.00212 -0.00597894 0)
(1.00221 -0.00826333 0)
(1.00227 -0.0103407 0)
(1.00224 -0.0122733 0)
(1.00211 -0.0139779 0)
(1.00187 -0.015407 0)
(1.0015 -0.0165094 0)
(1.00104 -0.0172499 0)
(1.00051 -0.0176012 0)
(0.999959 -0.0175479 0)
(0.999418 -0.0171179 0)
(0.99885 -0.0164197 0)
(0.998175 -0.0157238 0)
(0.997378 -0.0152498 0)
(0.996528 -0.0149183 0)
(0.995643 -0.0145333 0)
(0.994407 -0.01395 0)
(0.992117 -0.0131353 0)
(0.988692 -0.012141 0)
(0.985962 -0.0111911 0)
(0.985884 -0.0105088 0)
(0.98775 -0.00987643 0)
(0.989722 -0.0091526 0)
(0.991103 -0.00842334 0)
(0.991985 -0.00774212 0)
(0.992551 -0.00713377 0)
(0.992921 -0.00660652 0)
(1.00351 -0.00142579 0)
(1.00362 -0.00499193 0)
(1.00386 -0.00787737 0)
(1.00406 -0.0109569 0)
(1.0042 -0.0138059 0)
(1.00421 -0.0165257 0)
(1.00403 -0.0190019 0)
(1.00364 -0.021171 0)
(1.003 -0.0229536 0)
(1.00214 -0.0242949 0)
(1.00107 -0.0251703 0)
(0.999838 -0.0255979 0)
(0.998485 -0.0256594 0)
(0.997076 -0.0254368 0)
(0.995701 -0.0248469 0)
(0.994462 -0.0236678 0)
(0.993397 -0.0218587 0)
(0.992732 -0.0196825 0)
(0.993296 -0.0175026 0)
(0.996224 -0.0155615 0)
(1.00099 -0.0140008 0)
(1.00415 -0.0128525 0)
(1.00282 -0.011887 0)
(0.998491 -0.0111244 0)
(0.994353 -0.0106322 0)
(0.991599 -0.0102391 0)
(0.989962 -0.00985376 0)
(0.988998 -0.00945757 0)
(0.988414 -0.00905392 0)
(1.00517 -0.00170427 0)
(1.00537 -0.00595516 0)
(1.00573 -0.00943505 0)
(1.00607 -0.0132041 0)
(1.00635 -0.0167517 0)
(1.00645 -0.0202206 0)
(1.0063 -0.0234731 0)
(1.00582 -0.0264346 0)
(1.00499 -0.0289967 0)
(1.00381 -0.0310768 0)
(1.00234 -0.0326206 0)
(1.00064 -0.0336014 0)
(0.998844 -0.0340113 0)
(0.997041 -0.0338547 0)
(0.995273 -0.0332387 0)
(0.993469 -0.0325147 0)
(0.99157 -0.0320678 0)
(0.989603 -0.0319116 0)
(0.987287 -0.0316523 0)
(0.983819 -0.0308937 0)
(0.978967 -0.0294679 0)
(0.974867 -0.0275324 0)
(0.974403 -0.0256063 0)
(0.976899 -0.0238303 0)
(0.979378 -0.0220611 0)
(0.980674 -0.0204169 0)
(0.981156 -0.0189835 0)
(0.981247 -0.0177589 0)
(0.981172 -0.0167275 0)
(1.00685 -0.00193811 0)
(1.00714 -0.00676003 0)
(1.00765 -0.0107456 0)
(1.00819 -0.0151136 0)
(1.00866 -0.0192843 0)
(1.00893 -0.0234442 0)
(1.00889 -0.0274398 0)
(1.00843 -0.031192 0)
(1.00749 -0.0345625 0)
(1.00606 -0.037431 0)
(1.00418 -0.039696 0)
(1.00193 -0.0412954 0)
(0.999406 -0.0422333 0)
(0.996682 -0.0425778 0)
(0.993846 -0.0424229 0)
(0.99105 -0.041744 0)
(0.988479 -0.0402771 0)
(0.986267 -0.0379041 0)
(0.984823 -0.0350275 0)
(0.985305 -0.0322262 0)
(0.988356 -0.0300041 0)
(0.99142 -0.0285049 0)
(0.9904 -0.0272546 0)
(0.985475 -0.0260618 0)
(0.980432 -0.0251323 0)
(0.977123 -0.0243582 0)
(0.975139 -0.0236083 0)
(0.973896 -0.0228728 0)
(0.973073 -0.0221567 0)
(1.00852 -0.00214435 0)
(1.00892 -0.00746345 0)
(1.00961 -0.0118899 0)
(1.01037 -0.0167842 0)
(1.0111 -0.0215104 0)
(1.01162 -0.026301 0)
(1.01177 -0.0309973 0)
(1.01141 -0.0355278 0)
(1.01044 -0.039735 0)
(1.00881 -0.0434744 0)
(1.00654 -0.0466168 0)
(1.0037 -0.0490749 0)
(1.00044 -0.0508105 0)
(0.996932 -0.051788 0)
(0.993339 -0.051958 0)
(0.989759 -0.0514352 0)
(0.986141 -0.0506834 0)
(0.982387 -0.0502069 0)
(0.978423 -0.0499465 0)
(0.973766 -0.0493642 0)
(0.967756 -0.0479465 0)
(0.961797 -0.0455876 0)
(0.959494 -0.0429656 0)
(0.961439 -0.0405667 0)
(0.964005 -0.0381907 0)
(0.965094 -0.0359093 0)
(0.965195 -0.033899 0)
(0.96492 -0.0321642 0)
(0.964528 -0.0306905 0)
(1.01021 -0.0023297 0)
(1.01071 -0.00808838 0)
(1.01158 -0.0129014 0)
(1.01259 -0.0182586 0)
(1.01363 -0.0234792 0)
(1.01444 -0.0288455 0)
(1.01486 -0.0342004 0)
(1.0147 -0.0394886 0)
(1.01382 -0.0445432 0)
(1.01214 -0.0492006 0)
(1.00966 -0.0532898 0)
(1.00646 -0.0566527 0)
(1.00271 -0.0591651 0)
(0.998573 -0.06077 0)
(0.994144 -0.0615146 0)
(0.9895 -0.0615426 0)
(0.984817 -0.060817 0)
(0.980399 -0.0589764 0)
(0.97669 -0.055958 0)
(0.974597 -0.0524068 0)
(0.975194 -0.0492357 0)
(0.977194 -0.0470624 0)
(0.976239 -0.0454986 0)
(0.97069 -0.0438885 0)
(0.964311 -0.0424777 0)
(0.960053 -0.0413281 0)
(0.957472 -0.0402062 0)
(0.955741 -0.0391049 0)
(0.954507 -0.0380407 0)
(1.0119 -0.00249374 0)
(1.0125 -0.00863553 0)
(1.01354 -0.0137823 0)
(1.01482 -0.0195399 0)
(1.01617 -0.0251961 0)
(1.01734 -0.0310845 0)
(1.0181 -0.0370516 0)
(1.01823 -0.0430633 0)
(1.01757 -0.0489544 0)
(1.01597 -0.0545505 0)
(1.01338 -0.0596457 0)
(1.00985 -0.0640396 0)
(1.00548 -0.0675818 0)
(1.00041 -0.0702136 0)
(0.994837 -0.0719117 0)
(0.989008 -0.0726227 0)
(0.983113 -0.0724655 0)
(0.977115 -0.0719676 0)
(0.970894 -0.0716922 0)
(0.964304 -0.0714447 0)
(0.956811 -0.0704328 0)
(0.948897 -0.0681091 0)
(0.943888 -0.0648987 0)
(0.94404 -0.0617665 0)
(0.946109 -0.0587436 0)
(0.946685 -0.0556841 0)
(0.946102 -0.0529225 0)
(0.945241 -0.0505165 0)
(0.944356 -0.0484384 0)
(1.01357 -0.00263393 0)
(1.01426 -0.00909952 0)
(1.01548 -0.0145289 0)
(1.017 -0.0206249 0)
(1.01868 -0.0266569 0)
(1.02021 -0.0330123 0)
(1.02136 -0.039542 0)
(1.02187 -0.04624 0)
(1.0215 -0.0529576 0)
(1.02008 -0.0595293 0)
(1.01749 -0.065738 0)
(1.01372 -0.0713602 0)
(1.00885 -0.076184 0)
(1.0031 -0.0800245 0)
(0.996732 -0.0827321 0)
(0.989975 -0.0842442 0)
(0.982942 -0.0846229 0)
(0.975846 -0.0837904 0)
(0.969234 -0.0814622 0)
(0.964134 -0.0778083 0)
(0.961765 -0.0738181 0)
(0.961842 -0.0706391 0)
(0.960497 -0.0685186 0)
(0.95432 -0.0665068 0)
(0.946103 -0.0644259 0)
(0.940227 -0.0626946 0)
(0.936647 -0.061021 0)
(0.934088 -0.0593222 0)
(0.932146 -0.0576785 0)
(1.01519 -0.00274897 0)
(1.01598 -0.00947751 0)
(1.01737 -0.0151413 0)
(1.01912 -0.021519 0)
(1.02111 -0.0278676 0)
(1.02302 -0.0346326 0)
(1.02459 -0.0416719 0)
(1.02552 -0.0490112 0)
(1.02557 -0.0565279 0)
(1.02448 -0.0640767 0)
(1.02211 -0.0714362 0)
(1.01839 -0.0783468 0)
(1.01337 -0.0845206 0)
(1.00722 -0.0896853 0)
(1.00011 -0.0936668 0)
(0.992226 -0.0963896 0)
(0.983779 -0.097822 0)
(0.975013 -0.098203 0)
(0.966118 -0.0982595 0)
(0.957143 -0.0985191 0)
(0.947559 -0.0984437 0)
(0.937048 -0.0968631 0)
(0.928245 -0.0934121 0)
(0.925027 -0.0893483 0)
(0.925664 -0.0855156 0)
(0.925295 -0.0815438 0)
(0.923441 -0.077783 0)
(0.921468 -0.0745038 0)
(0.91964 -0.0716241 0)
(1.01673 -0.00283968 0)
(1.01762 -0.00977222 0)
(1.01918 -0.0156253 0)
(1.02116 -0.0222353 0)
(1.02344 -0.0288462 0)
(1.02573 -0.0359609 0)
(1.02774 -0.0434488 0)
(1.02918 -0.0513666 0)
(1.02973 -0.0596223 0)
(1.02914 -0.0680984 0)
(1.02717 -0.0765845 0)
(1.02369 -0.0848112 0)
(1.01864 -0.0924716 0)
(1.01206 -0.0992627 0)
(1.00411 -0.104926 0)
(0.995073 -0.109249 0)
(0.985288 -0.112071 0)
(0.975149 -0.11331 0)
(0.965323 -0.112762 0)
(0.956755 -0.110198 0)
(0.95049 -0.106083 0)
(0.947102 -0.101897 0)
(0.944196 -0.0990305 0)
(0.937093 -0.0967915 0)
(0.926428 -0.0940866 0)
(0.917799 -0.0915464 0)
(0.912492 -0.089187 0)
(0.908574 -0.0866809 0)
(0.905466 -0.0842297 0)
(1.01816 -0.00290856 0)
(1.01915 -0.00999201 0)
(1.02087 -0.0159928 0)
(1.02308 -0.0227918 0)
(1.02566 -0.0296166 0)
(1.02833 -0.0370209 0)
(1.0308 -0.0448903 0)
(1.03276 -0.0533122 0)
(1.0339 -0.06223 0)
(1.03389 -0.0715677 0)
(1.03243 -0.0811485 0)
(1.0293 -0.0907259 0)
(1.02436 -0.0999888 0)
(1.01763 -0.108574 0)
(1.00923 -0.116087 0)
(0.99944 -0.122193 0)
(0.988593 -0.126681 0)
(0.977085 -0.129517 0)
(0.965317 -0.131155 0)
(0.953378 -0.132488 0)
(0.940854 -0.13367 0)
(0.927066 -0.133447 0)
(0.913591 -0.130428 0)
(0.905197 -0.125473 0)
(0.902933 -0.120576 0)
(0.901207 -0.115693 0)
(0.897532 -0.110747 0)
(0.89381 -0.106403 0)
(0.890567 -0.10257 0)
(1.01947 -0.00295906 0)
(1.02056 -0.0101489 0)
(1.02244 -0.0162608 0)
(1.02488 -0.02321 0)
(1.02774 -0.0302056 0)
(1.03077 -0.0378435 0)
(1.03371 -0.0460279 0)
(1.03622 -0.0548777 0)
(1.03797 -0.0643763 0)
(1.0386 -0.0744949 0)
(1.03777 -0.0851002 0)
(1.03522 -0.0959757 0)
(1.03074 -0.106804 0)
(1.02426 -0.117184 0)
(1.0158 -0.126673 0)
(1.00546 -0.134887 0)
(0.993575 -0.14156 0)
(0.980645 -0.146475 0)
(0.967332 -0.149314 0)
(0.954543 -0.149454 0)
(0.94333 -0.146637 0)
(0.934801 -0.142122 0)
(0.928533 -0.138329 0)
(0.91998 -0.13597 0)
(0.906601 -0.1331 0)
(0.893788 -0.129641 0)
(0.885547 -0.12645 0)
(0.879605 -0.122978 0)
(0.874709 -0.119421 0)
(1.02068 -0.00299477 0)
(1.02185 -0.0102558 0)
(1.02388 -0.0164485 0)
(1.02653 -0.0235131 0)
(1.02967 -0.0306412 0)
(1.03306 -0.0384633 0)
(1.03644 -0.046901 0)
(1.03949 -0.0561035 0)
(1.04187 -0.0660919 0)
(1.04322 -0.0768836 0)
(1.04318 -0.0883911 0)
(1.04141 -0.10044 0)
(1.03764 -0.112745 0)
(1.03164 -0.124932 0)
(1.02326 -0.136556 0)
(1.01257 -0.147158 0)
(0.999923 -0.156314 0)
(0.985859 -0.163616 0)
(0.970889 -0.168833 0)
(0.955247 -0.172516 0)
(0.938687 -0.175669 0)
(0.920785 -0.177851 0)
(0.902083 -0.176844 0)
(0.886729 -0.171847 0)
(0.879028 -0.165579 0)
(0.875031 -0.159657 0)
(0.869059 -0.15333 0)
(0.862613 -0.147448 0)
(0.857219 -0.142298 0)
(1.02179 -0.00301891 0)
(1.02304 -0.0103239 0)
(1.02521 -0.0165734 0)
(1.02806 -0.0237236 0)
(1.03146 -0.0309508 0)
(1.03519 -0.0389145 0)
(1.039 -0.0475493 0)
(1.04258 -0.0570299 0)
(1.04561 -0.0674116 0)
(1.04772 -0.0787566 0)
(1.04852 -0.0910313 0)
(1.04763 -0.104125 0)
(1.04467 -0.117818 0)
(1.03931 -0.131777 0)
(1.03135 -0.145548 0)
(1.02078 -0.158593 0)
(1.00787 -0.170394 0)
(0.993017 -0.180467 0)
(0.976646 -0.188313 0)
(0.959428 -0.193243 0)
(0.942565 -0.194281 0)
(0.927535 -0.191368 0)
(0.915512 -0.187061 0)
(0.904084 -0.184553 0)
(0.888 -0.182421 0)
(0.869564 -0.178382 0)
(0.856057 -0.174034 0)
(0.846845 -0.169442 0)
(0.839082 -0.164306 0)
(1.0228 -0.00303422 0)
(1.02413 -0.0103624 0)
(1.02643 -0.0166501 0)
(1.02946 -0.0238612 0)
(1.03312 -0.0311592 0)
(1.03717 -0.0392282 0)
(1.04137 -0.0480098 0)
(1.04546 -0.0576993 0)
(1.04913 -0.0683837 0)
(1.05199 -0.0801709 0)
(1.05365 -0.0930863 0)
(1.05368 -0.107089 0)
(1.05167 -0.122025 0)
(1.04724 -0.137604 0)
(1.0401 -0.153393 0)
(1.0301 -0.168852 0)
(1.0173 -0.183432 0)
(1.00197 -0.196553 0)
(0.984472 -0.20756 0)
(0.965162 -0.216077 0)
(0.944123 -0.222878 0)
(0.921228 -0.22887 0)
(0.896719 -0.2323 0)
(0.87298 -0.229787 0)
(0.85611 -0.222657 0)
(0.847098 -0.21539 0)
(0.838153 -0.207831 0)
(0.827523 -0.1998 0)
(0.818535 -0.192705 0)
(1.02372 -0.00304293 0)
(1.02513 -0.0103786 0)
(1.02754 -0.0166898 0)
(1.03075 -0.023942 0)
(1.03464 -0.0312876 0)
(1.03899 -0.0394317 0)
(1.04357 -0.0483168 0)
(1.04814 -0.0581563 0)
(1.0524 -0.0690659 0)
(1.05598 -0.0811954 0)
(1.0585 -0.0946251 0)
(1.05951 -0.109379 0)
(1.05861 -0.125367 0)
(1.05533 -0.142366 0)
(1.04927 -0.160018 0)
(1.04011 -0.177834 0)
(1.02776 -0.19524 0)
(1.0124 -0.211587 0)
(0.994271 -0.226146 0)
(0.973663 -0.238028 0)
(0.951362 -0.245954 0)
(0.929232 -0.24845 0)
(0.909366 -0.246125 0)
(0.892157 -0.243567 0)
(0.872673 -0.243114 0)
(0.847836 -0.240318 0)
(0.825394 -0.23475 0)
(0.810146 -0.228906 0)
(0.797811 -0.221875 0)
(1.02455 -0.00304686 0)
(1.02602 -0.0103785 0)
(1.02855 -0.016702 0)
(1.03191 -0.0239792 0)
(1.03603 -0.0313536 0)
(1.04065 -0.039548 0)
(1.04558 -0.0485011 0)
(1.0506 -0.0584422 0)
(1.05541 -0.0695103 0)
(1.05969 -0.0818902 0)
(1.06306 -0.0957087 0)
(1.06511 -0.111051 0)
(1.06537 -0.127904 0)
(1.06333 -0.146132 0)
(1.05848 -0.165469 0)
(1.05043 -0.185485 0)
(1.03899 -0.205601 0)
(1.02416 -0.225152 0)
(1.00601 -0.243374 0)
(0.984536 -0.259326 0)
(0.959748 -0.272562 0)
(0.93188 -0.284229 0)
(0.901307 -0.29465 0)
(0.868882 -0.299566 0)
(0.839315 -0.295141 0)
(0.819591 -0.286507 0)
(0.805601 -0.278213 0)
(0.789281 -0.26821 0)
(0.773949 -0.258285 0)
(1.02529 -0.00304744 0)
(1.02681 -0.0103667 0)
(1.02945 -0.016694 0)
(1.03296 -0.0239836 0)
(1.03729 -0.0313718 0)
(1.04216 -0.0395968 0)
(1.04742 -0.0485892 0)
(1.05285 -0.0585924 0)
(1.05819 -0.069762 0)
(1.06313 -0.0823102 0)
(1.06734 -0.0964063 0)
(1.07039 -0.112196 0)
(1.0718 -0.129749 0)
(1.07102 -0.149014 0)
(1.06752 -0.169806 0)
(1.06087 -0.19177 0)
(1.05074 -0.21439 0)
(1.03693 -0.23705 0)
(1.01928 -0.259047 0)
(0.99756 -0.279416 0)
(0.971866 -0.296817 0)
(0.943694 -0.309209 0)
(0.915522 -0.314344 0)
(0.889193 -0.314174 0)
(0.863802 -0.315825 0)
(0.833016 -0.317917 0)
(0.798326 -0.313521 0)
(0.771257 -0.306325 0)
(0.751352 -0.297818 0)
(1.02595 -0.00304571 0)
(1.02752 -0.0103471 0)
(1.03026 -0.016672 0)
(1.03389 -0.0239642 0)
(1.03841 -0.0313542 0)
(1.04351 -0.0395942 0)
(1.04907 -0.0486027 0)
(1.05489 -0.0586359 0)
(1.06072 -0.0698601 0)
(1.0663 -0.0825097 0)
(1.07128 -0.0967929 0)
(1.07527 -0.112912 0)
(1.0778 -0.131008 0)
(1.07833 -0.151106 0)
(1.07631 -0.173102 0)
(1.07124 -0.196742 0)
(1.06268 -0.221618 0)
(1.05026 -0.247191 0)
(1.03368 -0.272798 0)
(1.01253 -0.29747 0)
(0.986463 -0.320003 0)
(0.955604 -0.340221 0)
(0.920124 -0.359787 0)
(0.880116 -0.377378 0)
(0.837228 -0.384251 0)
(0.79974 -0.37791 0)
(0.774056 -0.369093 0)
(0.750604 -0.359319 0)
(0.72505 -0.34609 0)
(1.02654 -0.00304245 0)
(1.02816 -0.0103223 0)
(1.03098 -0.0166404 0)
(1.03473 -0.023928 0)
(1.03942 -0.0313112 0)
(1.04473 -0.0395537 0)
(1.05057 -0.0485603 0)
(1.05674 -0.0585984 0)
(1.06302 -0.0698408 0)
(1.06917 -0.0825399 0)
(1.07487 -0.0969374 0)
(1.07975 -0.113282 0)
(1.08338 -0.131775 0)
(1.08523 -0.152517 0)
(1.08471 -0.175487 0)
(1.08129 -0.200539 0)
(1.07446 -0.227381 0)
(1.06379 -0.255561 0)
(1.04878 -0.284489 0)
(1.02882 -0.313386 0)
(1.00334 -0.34122 0)
(0.972695 -0.366399 0)
(0.938678 -0.385673 0)
(0.903239 -0.395517 0)
(0.86806 -0.400466 0)
(0.830614 -0.410097 0)
(0.783972 -0.415202 0)
(0.736724 -0.408565 0)
(0.701867 -0.39932 0)
(1.02707 -0.00303818 0)
(1.02873 -0.0102945 0)
(1.03164 -0.0166029 0)
(1.03549 -0.0238806 0)
(1.04033 -0.0312507 0)
(1.04583 -0.0394865 0)
(1.05191 -0.0484774 0)
(1.0584 -0.0585019 0)
(1.06509 -0.0697351 0)
(1.07175 -0.0824435 0)
(1.07812 -0.0968951 0)
(1.08385 -0.113376 0)
(1.08854 -0.132142 0)
(1.09165 -0.153364 0)
(1.09261 -0.177106 0)
(1.09084 -0.203313 0)
(1.08586 -0.231798 0)
(1.07718 -0.262222 0)
(1.06415 -0.294103 0)
(1.04597 -0.326818 0)
(1.02207 -0.35951 0)
(0.992104 -0.39107 0)
(0.955386 -0.421715 0)
(0.911332 -0.45392 0)
(0.859585 -0.483518 0)
(0.801937 -0.494154 0)
(0.751789 -0.486831 0)
(0.714729 -0.479355 0)
(0.676235 -0.466148 0)
(1.02754 -0.00303331 0)
(1.02924 -0.0102651 0)
(1.03222 -0.016562 0)
(1.03616 -0.0238263 0)
(1.04115 -0.0311791 0)
(1.0468 -0.0394015 0)
(1.05311 -0.0483674 0)
(1.05988 -0.0583649 0)
(1.06693 -0.0695687 0)
(1.07407 -0.0822551 0)
(1.08106 -0.096713 0)
(1.08758 -0.113259 0)
(1.09324 -0.132199 0)
(1.09755 -0.153766 0)
(1.09992 -0.178099 0)
(1.09981 -0.205221 0)
(1.09673 -0.235035 0)
(1.09016 -0.267327 0)
(1.07936 -0.301744 0)
(1.06343 -0.337801 0)
(1.04172 -0.375026 0)
(1.01381 -0.412789 0)
(0.979355 -0.449099 0)
(0.939355 -0.478757 0)
(0.894972 -0.49658 0)
(0.847711 -0.51249 0)
(0.792495 -0.537179 0)
(0.721702 -0.545506 0)
(0.654896 -0.535187 0)
(1.02797 -0.00302811 0)
(1.0297 -0.0102354 0)
(1.03274 -0.0165198 0)
(1.03676 -0.0237683 0)
(1.04187 -0.0311015 0)
(1.04767 -0.0393058 0)
(1.05418 -0.0482405 0)
(1.06119 -0.0582021 0)
(1.06858 -0.0693618 0)
(1.07614 -0.0820032 0)
(1.08369 -0.0964312 0)
(1.09093 -0.112989 0)
(1.09749 -0.132023 0)
(1.10291 -0.153822 0)
(1.10664 -0.178585 0)
(1.10814 -0.206409 0)
(1.10692 -0.237276 0)
(1.10247 -0.271071 0)
(1.09405 -0.307577 0)
(1.0807 -0.346467 0)
(1.06174 -0.387483 0)
(1.03697 -0.430383 0)
(1.005 -0.474361 0)
(0.962718 -0.520207 0)
(0.90953 -0.573214 0)
(0.843788 -0.625115 0)
(0.7629 -0.643656 0)
(0.687807 -0.637067 0)
(0.628921 -0.631067 0)
(1.02834 -0.0030228 0)
(1.0301 -0.0102062 0)
(1.03319 -0.0164775 0)
(1.03729 -0.0237091 0)
(1.04251 -0.0310214 0)
(1.04844 -0.0392048 0)
(1.05513 -0.0481048 0)
(1.06236 -0.0580249 0)
(1.07003 -0.0691309 0)
(1.07798 -0.0817119 0)
(1.08603 -0.0960845 0)
(1.09391 -0.112615 0)
(1.1013 -0.131681 0)
(1.10776 -0.153618 0)
(1.11275 -0.178681 0)
(1.11578 -0.207027 0)
(1.11635 -0.238711 0)
(1.11396 -0.273682 0)
(1.10794 -0.311833 0)
(1.09739 -0.353027 0)
(1.08156 -0.397172 0)
(1.06024 -0.444499 0)
(1.03261 -0.495412 0)
(0.996575 -0.547879 0)
(0.951215 -0.593346 0)
(0.896271 -0.623686 0)
(0.833482 -0.663584 0)
(0.748313 -0.721283 0)
(0.629392 -0.728932 0)
(1.02867 -0.00301753 0)
(1.03046 -0.010178 0)
(1.0336 -0.0164364 0)
(1.03777 -0.0236506 0)
(1.04308 -0.0309417 0)
(1.04912 -0.0391027 0)
(1.05597 -0.0479662 0)
(1.06339 -0.057842 0)
(1.07132 -0.0688888 0)
(1.07961 -0.0814 0)
(1.08809 -0.0957003 0)
(1.09656 -0.112173 0)
(1.1047 -0.131225 0)
(1.1121 -0.153228 0)
(1.11826 -0.178484 0)
(1.1227 -0.207205 0)
(1.12497 -0.239501 0)
(1.12456 -0.27537 0)
(1.12083 -0.314764 0)
(1.11309 -0.357726 0)
(1.10068 -0.4044 0)
(1.08323 -0.455069 0)
(1.06068 -0.510644 0)
(1.03045 -0.571652 0)
(0.984255 -0.639233 0)
(0.922587 -0.726541 0)
(0.846082 -0.827338 0)
(0.722207 -0.870962 0)
(0.573477 -0.862465 0)
(1.02896 -0.00301242 0)
(1.03078 -0.0101515 0)
(1.03396 -0.0163972 0)
(1.03819 -0.0235942 0)
(1.04358 -0.0308645 0)
(1.04973 -0.0390025 0)
(1.05671 -0.0478296 0)
(1.0643 -0.0576601 0)
(1.07246 -0.0686456 0)
(1.08104 -0.0810824 0)
(1.08992 -0.0953001 0)
(1.0989 -0.111696 0)
(1.10771 -0.130699 0)
(1.11597 -0.152714 0)
(1.12319 -0.178083 0)
(1.12893 -0.207061 0)
(1.13275 -0.239799 0)
(1.13421 -0.27634 0)
(1.13265 -0.316656 0)
(1.12754 -0.360885 0)
(1.11863 -0.40946 0)
(1.1054 -0.462743 0)
(1.08747 -0.521726 0)
(1.06459 -0.589756 0)
(1.03328 -0.667048 0)
(0.987506 -0.735907 0)
(0.920561 -0.782203 0)
(0.83888 -0.883876 0)
(0.680476 -1.02324 0)
(1.02922 -0.00300754 0)
(1.03106 -0.0101267 0)
(1.03428 -0.0163603 0)
(1.03856 -0.0235408 0)
(1.04403 -0.030791 0)
(1.05026 -0.0389064 0)
(1.05736 -0.047698 0)
(1.0651 -0.057484 0)
(1.07346 -0.0684083 0)
(1.0823 -0.0807692 0)
(1.09152 -0.0948991 0)
(1.10096 -0.111206 0)
(1.11037 -0.130137 0)
(1.11938 -0.152124 0)
(1.12757 -0.177544 0)
(1.13448 -0.206685 0)
(1.13973 -0.239729 0)
(1.1429 -0.276753 0)
(1.14335 -0.317742 0)
(1.14064 -0.362828 0)
(1.13501 -0.412669 0)
(1.12614 -0.467927 0)
(1.11314 -0.529205 0)
(1.09768 -0.600021 0)
(1.07812 -0.683772 0)
(1.03459 -0.775848 0)
(0.969156 -0.912217 0)
(0.89546 -1.13297 0)
(0.632923 -1.18543 0)
(0.998768 -0.00173795 0)
(0.998724 -0.00161514 0)
(0.998552 -0.00148888 0)
(0.998247 -0.00135736 0)
(0.997792 -0.0012192 0)
(0.997172 -0.00107337 0)
(0.996368 -0.000919708 0)
(0.995369 -0.000759208 0)
(0.994176 -0.000594212 0)
(0.99281 -0.000428491 0)
(0.991313 -0.000267116 0)
(0.989754 -0.000116039 0)
(0.988228 1.86252e-05 0)
(0.986842 0.000131535 0)
(0.985715 0.000219168 0)
(0.984951 0.000280689 0)
(0.984632 0.000318496 0)
(0.984795 0.000338277 0)
(0.98543 0.00034844 0)
(0.997609 -0.00398331 0)
(0.997618 -0.00385698 0)
(0.997689 -0.00373976 0)
(0.997836 -0.00363439 0)
(0.998084 -0.00354103 0)
(0.998468 -0.00345881 0)
(0.999027 -0.0033854 0)
(0.999802 -0.0033164 0)
(1.00083 -0.00324495 0)
(1.00211 -0.00316155 0)
(1.00365 -0.00305428 0)
(1.00538 -0.00290953 0)
(1.00722 -0.00271339 0)
(1.00903 -0.00245367 0)
(1.01065 -0.00212215 0)
(1.0119 -0.00171671 0)
(1.01265 -0.00124281 0)
(1.01277 -0.000713685 0)
(1.01225 -0.000149156 0)
(0.993161 -0.00615029 0)
(0.993314 -0.00571914 0)
(0.993386 -0.00527623 0)
(0.993352 -0.00482205 0)
(0.993179 -0.00435756 0)
(0.992822 -0.00388291 0)
(0.99223 -0.00339839 0)
(0.991344 -0.00290508 0)
(0.990115 -0.0024053 0)
(0.988508 -0.00190311 0)
(0.98652 -0.00140468 0)
(0.984191 -0.000918192 0)
(0.98162 -0.000453264 0)
(0.978965 -1.97028e-05 0)
(0.976432 0.000374237 0)
(0.97426 0.000723767 0)
(0.972679 0.00102915 0)
(0.971876 0.0012964 0)
(0.971949 0.00153675 0)
(0.988044 -0.00865755 0)
(0.987789 -0.00826096 0)
(0.987613 -0.0078495 0)
(0.987517 -0.00742858 0)
(0.987518 -0.00700164 0)
(0.987645 -0.00657363 0)
(0.987939 -0.00615058 0)
(0.988452 -0.00573889 0)
(0.989236 -0.00534451 0)
(0.990337 -0.0049719 0)
(0.991777 -0.0046228 0)
(0.99354 -0.00429525 0)
(0.995555 -0.00398307 0)
(0.997692 -0.00367629 0)
(0.999767 -0.00336256 0)
(1.00156 -0.00302946 0)
(1.00284 -0.00266729 0)
(1.00343 -0.00227139 0)
(1.00323 -0.00184334 0)
(0.981037 -0.015853 0)
(0.980876 -0.0150417 0)
(0.98069 -0.0142237 0)
(0.980481 -0.0133996 0)
(0.980243 -0.012571 0)
(0.979956 -0.0117387 0)
(0.979588 -0.010903 0)
(0.97909 -0.0100643 0)
(0.978402 -0.00922381 0)
(0.977461 -0.00838364 0)
(0.976206 -0.00754821 0)
(0.974605 -0.00672477 0)
(0.972669 -0.00592383 0)
(0.970478 -0.00515846 0)
(0.968184 -0.00444257 0)
(0.966008 -0.00378794 0)
(0.96421 -0.0032009 0)
(0.963042 -0.00267937 0)
(0.962689 -0.0022117 0)
(0.972498 -0.0214766 0)
(0.972058 -0.020811 0)
(0.971706 -0.0201309 0)
(0.971447 -0.0194408 0)
(0.971294 -0.0187414 0)
(0.971273 -0.0180341 0)
(0.971424 -0.0173213 0)
(0.971795 -0.0166055 0)
(0.972446 -0.0158893 0)
(0.973441 -0.0151742 0)
(0.974833 -0.0144597 0)
(0.976648 -0.0137416 0)
(0.978862 -0.0130116 0)
(0.981379 -0.0122565 0)
(0.984018 -0.0114599 0)
(0.986523 -0.0106052 0)
(0.988588 -0.00968018 0)
(0.989918 -0.00868136 0)
(0.990292 -0.0076174 0)
(0.964128 -0.0294323 0)
(0.963738 -0.0282571 0)
(0.963349 -0.0270653 0)
(0.962971 -0.0258573 0)
(0.962608 -0.0246355 0)
(0.962251 -0.0234004 0)
(0.961877 -0.0221516 0)
(0.961449 -0.0208886 0)
(0.960906 -0.0196105 0)
(0.960171 -0.018317 0)
(0.959152 -0.0170094 0)
(0.957763 -0.0156926 0)
(0.955949 -0.0143762 0)
(0.953718 -0.0130757 0)
(0.951172 -0.0118115 0)
(0.948527 -0.0106054 0)
(0.946094 -0.00947506 0)
(0.944233 -0.00842748 0)
(0.943267 -0.0074542 0)
(0.953582 -0.0370322 0)
(0.95282 -0.0360448 0)
(0.95215 -0.0350316 0)
(0.951574 -0.0339978 0)
(0.9511 -0.0329423 0)
(0.950746 -0.0318647 0)
(0.950538 -0.0307654 0)
(0.950515 -0.0296447 0)
(0.95073 -0.028503 0)
(0.95125 -0.0273404 0)
(0.952151 -0.0261551 0)
(0.953504 -0.0249421 0)
(0.955352 -0.0236905 0)
(0.957674 -0.0223825 0)
(0.96035 -0.0209926 0)
(0.963136 -0.0194913 0)
(0.965678 -0.0178513 0)
(0.967556 -0.0160573 0)
(0.968387 -0.0141151 0)
(0.943538 -0.0466432 0)
(0.94277 -0.0449494 0)
(0.942016 -0.0432171 0)
(0.941287 -0.0414464 0)
(0.940587 -0.0396387 0)
(0.939911 -0.0377924 0)
(0.939244 -0.0359052 0)
(0.938551 -0.0339743 0)
(0.937781 -0.031996 0)
(0.93685 -0.0299669 0)
(0.935654 -0.0278848 0)
(0.934063 -0.0257514 0)
(0.931958 -0.0235752 0)
(0.929261 -0.0213751 0)
(0.925991 -0.019182 0)
(0.922322 -0.0170375 0)
(0.918606 -0.0149871 0)
(0.915347 -0.0130685 0)
(0.913094 -0.0112979 0)
(0.93061 -0.0561124 0)
(0.929272 -0.0545667 0)
(0.928016 -0.0529622 0)
(0.926834 -0.0513061 0)
(0.925726 -0.049598 0)
(0.9247 -0.0478387 0)
(0.923769 -0.0460301 0)
(0.92296 -0.0441753 0)
(0.922313 -0.0422787 0)
(0.921894 -0.0403468 0)
(0.921794 -0.038387 0)
(0.922128 -0.036406 0)
(0.923021 -0.0344069 0)
(0.924571 -0.0323839 0)
(0.926792 -0.0303176 0)
(0.929549 -0.0281728 0)
(0.932515 -0.0259019 0)
(0.935182 -0.0234569 0)
(0.936957 -0.0208086 0)
(0.918004 -0.0691044 0)
(0.916484 -0.0667064 0)
(0.914991 -0.0642398 0)
(0.913538 -0.061709 0)
(0.912134 -0.0591171 0)
(0.910781 -0.0564651 0)
(0.909477 -0.0537536 0)
(0.90821 -0.0509827 0)
(0.906952 -0.0481515 0)
(0.905651 -0.0452581 0)
(0.904224 -0.0422987 0)
(0.902546 -0.0392694 0)
(0.900457 -0.0361686 0)
(0.89779 -0.0330024 0)
(0.894424 -0.0297907 0)
(0.89037 -0.0265733 0)
(0.885867 -0.0234092 0)
(0.88143 -0.0203662 0)
(0.87779 -0.0174993 0)
(0.902961 -0.0818935 0)
(0.900739 -0.0795748 0)
(0.898619 -0.0771543 0)
(0.896595 -0.0746453 0)
(0.894663 -0.0720542 0)
(0.892828 -0.0693874 0)
(0.891097 -0.0666519 0)
(0.889483 -0.0638546 0)
(0.888008 -0.0610023 0)
(0.886713 -0.058103 0)
(0.885662 -0.0551659 0)
(0.884955 -0.0522016 0)
(0.884734 -0.0492211 0)
(0.885167 -0.0462313 0)
(0.886403 -0.0432274 0)
(0.888488 -0.0401837 0)
(0.891259 -0.0370468 0)
(0.894262 -0.0337411 0)
(0.896779 -0.0301913 0)
(0.887706 -0.0991597 0)
(0.885088 -0.0958922 0)
(0.882548 -0.0925101 0)
(0.880101 -0.0890236 0)
(0.877758 -0.0854348 0)
(0.875526 -0.0817439 0)
(0.873405 -0.0779509 0)
(0.871389 -0.0740564 0)
(0.869465 -0.0700611 0)
(0.867603 -0.0659655 0)
(0.865753 -0.0617695 0)
(0.863823 -0.0574719 0)
(0.861676 -0.0530708 0)
(0.859119 -0.0485667 0)
(0.855932 -0.0439698 0)
(0.851942 -0.0393113 0)
(0.847157 -0.0346548 0)
(0.841926 -0.0300961 0)
(0.837017 -0.025743 0)
(0.870764 -0.116023 0)
(0.867252 -0.112598 0)
(0.863898 -0.108981 0)
(0.860696 -0.105195 0)
(0.857642 -0.101257 0)
(0.854738 -0.0971857 0)
(0.851989 -0.0930009 0)
(0.849403 -0.0887222 0)
(0.846994 -0.0843693 0)
(0.844783 -0.0799624 0)
(0.842811 -0.075522 0)
(0.841143 -0.0710702 0)
(0.839893 -0.0666303 0)
(0.839227 -0.0622256 0)
(0.83936 -0.0578729 0)
(0.840502 -0.0535704 0)
(0.84273 -0.0492786 0)
(0.845801 -0.0449074 0)
(0.849019 -0.0403262 0)
(0.85249 -0.137586 0)
(0.848188 -0.133021 0)
(0.844058 -0.128247 0)
(0.840113 -0.123284 0)
(0.836381 -0.118141 0)
(0.832877 -0.112823 0)
(0.829611 -0.107341 0)
(0.826587 -0.101704 0)
(0.823805 -0.0959237 0)
(0.821254 -0.0900132 0)
(0.818905 -0.0839835 0)
(0.816706 -0.0778453 0)
(0.814559 -0.0716064 0)
(0.812297 -0.0652724 0)
(0.809675 -0.0588507 0)
(0.806384 -0.0523619 0)
(0.802159 -0.0458617 0)
(0.796999 -0.0394616 0)
(0.791468 -0.0333303 0)
(0.832781 -0.15932 0)
(0.827218 -0.154204 0)
(0.82192 -0.148705 0)
(0.816923 -0.142888 0)
(0.812229 -0.136784 0)
(0.807853 -0.130444 0)
(0.803812 -0.123909 0)
(0.800116 -0.117228 0)
(0.796777 -0.110449 0)
(0.793808 -0.10362 0)
(0.791227 -0.0967939 0)
(0.789066 -0.0900208 0)
(0.787384 -0.0833534 0)
(0.786295 -0.0768445 0)
(0.785987 -0.0705442 0)
(0.786731 -0.06449 0)
(0.788817 -0.0586815 0)
(0.792339 -0.0530464 0)
(0.796852 -0.0474023 0)
(0.810864 -0.186064 0)
(0.803849 -0.179439 0)
(0.797224 -0.172428 0)
(0.790981 -0.165019 0)
(0.785187 -0.157269 0)
(0.779886 -0.149203 0)
(0.775102 -0.140863 0)
(0.770863 -0.132297 0)
(0.76718 -0.123553 0)
(0.764056 -0.114678 0)
(0.761477 -0.105716 0)
(0.759408 -0.0967081 0)
(0.757776 -0.0876875 0)
(0.756448 -0.0786795 0)
(0.755196 -0.0697014 0)
(0.753657 -0.0607693 0)
(0.751342 -0.0519258 0)
(0.747788 -0.0432718 0)
(0.742982 -0.0350305 0)
(0.78743 -0.214524 0)
(0.778456 -0.206909 0)
(0.769939 -0.19847 0)
(0.762031 -0.189421 0)
(0.754782 -0.179802 0)
(0.748225 -0.169711 0)
(0.742426 -0.159247 0)
(0.737404 -0.148504 0)
(0.733189 -0.13759 0)
(0.729784 -0.126613 0)
(0.727192 -0.115689 0)
(0.725405 -0.104936 0)
(0.724425 -0.0944778 0)
(0.724279 -0.0844388 0)
(0.725063 -0.0749434 0)
(0.726983 -0.0661119 0)
(0.730403 -0.0580233 0)
(0.735743 -0.0507003 0)
(0.743145 -0.0439718 0)
(0.761418 -0.249075 0)
(0.749831 -0.239308 0)
(0.738993 -0.228749 0)
(0.728956 -0.217312 0)
(0.719803 -0.205106 0)
(0.711692 -0.192251 0)
(0.70466 -0.178845 0)
(0.698792 -0.165037 0)
(0.694115 -0.150959 0)
(0.690657 -0.136757 0)
(0.688407 -0.122568 0)
(0.687334 -0.10852 0)
(0.687368 -0.0947249 0)
(0.688382 -0.0812752 0)
(0.690156 -0.0682375 0)
(0.692317 -0.0556418 0)
(0.69424 -0.0435465 0)
(0.695075 -0.0320032 0)
(0.693759 -0.0212283 0)
(0.733976 -0.287282 0)
(0.718952 -0.276048 0)
(0.70489 -0.263175 0)
(0.691881 -0.248939 0)
(0.680254 -0.233574 0)
(0.670024 -0.217184 0)
(0.661386 -0.200029 0)
(0.654384 -0.182293 0)
(0.649099 -0.164211 0)
(0.645537 -0.14601 0)
(0.643701 -0.12793 0)
(0.643551 -0.110217 0)
(0.645029 -0.0931282 0)
(0.648065 -0.0769327 0)
(0.652616 -0.0619064 0)
(0.658726 -0.0483659 0)
(0.666685 -0.0365272 0)
(0.676901 -0.0266697 0)
(0.690472 -0.0188475 0)
(0.703696 -0.333479 0)
(0.684416 -0.319478 0)
(0.66607 -0.30336 0)
(0.649473 -0.285567 0)
(0.634531 -0.265999 0)
(0.621684 -0.24512 0)
(0.610983 -0.22312 0)
(0.602614 -0.200338 0)
(0.596607 -0.177074 0)
(0.593029 -0.15364 0)
(0.591863 -0.130344 0)
(0.593082 -0.107489 0)
(0.596605 -0.0853658 0)
(0.602298 -0.064235 0)
(0.609928 -0.0443325 0)
(0.619114 -0.0257369 0)
(0.629 -0.0086639 0)
(0.638793 0.00695111 0)
(0.645796 0.0210647 0)
(0.673308 -0.385944 0)
(0.647291 -0.36918 0)
(0.623722 -0.349867 0)
(0.60197 -0.327389 0)
(0.582984 -0.302793 0)
(0.566741 -0.276233 0)
(0.553588 -0.248237 0)
(0.543527 -0.219229 0)
(0.536709 -0.189613 0)
(0.533099 -0.159794 0)
(0.532729 -0.130168 0)
(0.535555 -0.101139 0)
(0.54152 -0.0731388 0)
(0.55052 -0.0466535 0)
(0.562431 -0.0221802 0)
(0.577044 -0.000515891 0)
(0.594814 0.0179448 0)
(0.615163 0.0321524 0)
(0.640828 0.0412286 0)
(0.638462 -0.44788 0)
(0.606087 -0.42848 0)
(0.575114 -0.403555 0)
(0.547669 -0.375483 0)