/*--------------------------------*- C++ -*----------------------------------*\
  =========                 |
  \\      /  F ield         | OpenFOAM: The Open Source CFD Toolbox
   \\    /   O peration     | Website:  https://openfoam.org
    \\  /    A nd           | Version:  10
     \\/     M anipulation  |
\*---------------------------------------------------------------------------*/
FoamFile
{
    format      ascii;
    class       volVectorField;
    location    "0";
    object      U;
}
// * * * * * * * * * * * * * * * * * * * * * * * * * * * * * * * * * * * * * //

dimensions      [0 1 -1 0 0 0 0];

internalField   nonuniform List<vector> 
18483
(
(1 -0.00020456 0)
(1 -0.000735499 0)
(1 -0.00117811 0)
(1 -0.0016573 0)
(0.999998 -0.00211902 0)
(0.999995 -0.00256863 0)
(0.999992 -0.00298652 0)
(0.999988 -0.00335832 0)
(0.999983 -0.00367161 0)
(0.999978 -0.00391892 0)
(0.999971 -0.00410077 0)
(0.999961 -0.00422682 0)
(0.999946 -0.00431174 0)
(0.999924 -0.00439015 0)
(0.999891 -0.00449923 0)
(0.999839 -0.00466845 0)
(0.999732 -0.00486318 0)
(0.999409 -0.00499218 0)
(0.99844 -0.00497079 0)
(0.996282 -0.00472771 0)
(0.993186 -0.00432029 0)
(0.990753 -0.00391958 0)
(0.990464 -0.00359828 0)
(0.992035 -0.00330995 0)
(0.994186 -0.00302621 0)
(0.996037 -0.00275614 0)
(0.997355 -0.00251102 0)
(0.998214 -0.00229637 0)
(0.998749 -0.00211218 0)
(1.00063 -0.000566735 0)
(1.00066 -0.00202748 0)
(1.00073 -0.00325434 0)
(1.00081 -0.00460069 0)
(1.00088 -0.0059118 0)
(1.00093 -0.0072089 0)
(1.00095 -0.00843628 0)
(1.00093 -0.00955397 0)
(1.00087 -0.0105235 0)
(1.00076 -0.0113211 0)
(1.00061 -0.0119336 0)
(1.00045 -0.0123754 0)
(1.00032 -0.0126655 0)
(1.00022 -0.0127682 0)
(1.00018 -0.0126215 0)
(1.00014 -0.0121688 0)
(1.00003 -0.011468 0)
(0.999855 -0.0106983 0)
(0.999957 -0.0100556 0)
(1.00109 -0.00974355 0)
(1.00362 -0.00978123 0)
(1.00619 -0.00990258 0)
(1.00669 -0.00991841 0)
(1.00495 -0.00988894 0)
(1.00244 -0.0098711 0)
(1.00028 -0.00985009 0)
(0.998773 -0.00981146 0)
(0.997788 -0.0097515 0)
(0.997157 -0.00967497 0)
(1.00173 -0.000860295 0)
(1.00183 -0.00306101 0)
(1.00203 -0.00491783 0)
(1.00225 -0.00697431 0)
(1.00246 -0.00898903 0)
(1.00263 -0.0110067 0)
(1.00271 -0.0129398 0)
(1.00268 -0.0147268 0)
(1.00252 -0.0162977 0)
(1.00225 -0.0176037 0)
(1.00187 -0.0186083 0)
(1.00143 -0.019291 0)
(1.00097 -0.0196656 0)
(1.00052 -0.0197646 0)
(1.00005 -0.0197163 0)
(0.999486 -0.019747 0)
(0.99883 -0.0199547 0)
(0.998032 -0.0202221 0)
(0.996817 -0.0203647 0)
(0.994686 -0.020211 0)
(0.991499 -0.0196655 0)
(0.98839 -0.0189113 0)
(0.987241 -0.0182269 0)
(0.9884 -0.0176009 0)
(0.990462 -0.0169673 0)
(0.992241 -0.0163727 0)
(0.993444 -0.0158556 0)
(0.994185 -0.015425 0)
(0.994628 -0.0150752 0)
(1.00303 -0.00110331 0)
(1.00322 -0.00390441 0)
(1.00356 -0.00627254 0)
(1.00395 -0.00891452 0)
(1.00434 -0.0115137 0)
(1.00466 -0.0141418 0)
(1.00482 -0.0166874 0)
(1.0048 -0.019073 0)
(1.00454 -0.0212016 0)
(1.00405 -0.0229993 0)
(1.00334 -0.0244143 0)
(1.00247 -0.0254088 0)
(1.00147 -0.0260098 0)
(1.00042 -0.0262995 0)
(0.999349 -0.0263368 0)
(0.998338 -0.026003 0)
(0.997447 -0.0251188 0)
(0.996721 -0.0237816 0)
(0.996448 -0.0223315 0)
(0.997327 -0.0211104 0)
(0.999735 -0.0203374 0)
(1.00237 -0.0199269 0)
(1.00288 -0.0195413 0)
(1.0007 -0.0191179 0)
(0.997556 -0.0187698 0)
(0.994951 -0.0184636 0)
(0.993203 -0.0181493 0)
(0.992102 -0.0178198 0)
(0.991405 -0.017483 0)
(1.00436 -0.00131428 0)
(1.00464 -0.00462631 0)
(1.00514 -0.00742879 0)
(1.00573 -0.0105734 0)
(1.00633 -0.0136779 0)
(1.00683 -0.0168466 0)
(1.00713 -0.0199522 0)
(1.00714 -0.0229102 0)
(1.00682 -0.0256029 0)
(1.00614 -0.0279296 0)
(1.00514 -0.0298145 0)
(1.00385 -0.0312066 0)
(1.00237 -0.0321035 0)
(1.00079 -0.0325209 0)
(0.999206 -0.0324976 0)
(0.997638 -0.0321621 0)
(0.996036 -0.0317962 0)
(0.994376 -0.0316273 0)
(0.992571 -0.0315314 0)
(0.990152 -0.0312072 0)
(0.986536 -0.0304365 0)
(0.982439 -0.0292548 0)
(0.980147 -0.0280135 0)
(0.98072 -0.0268927 0)
(0.982597 -0.0257686 0)
(0.984124 -0.0246717 0)
(0.984961 -0.0236899 0)
(0.985326 -0.0228437 0)
(0.985435 -0.0221283 0)
(1.00568 -0.00150454 0)
(1.00607 -0.00526988 0)
(1.00674 -0.00845826 0)
(1.00753 -0.0120524 0)
(1.00837 -0.0156132 0)
(1.0091 -0.0192843 0)
(1.00959 -0.0229291 0)
(1.00972 -0.0264629 0)
(1.0094 -0.0297491 0)
(1.00861 -0.0326613 0)
(1.00734 -0.035093 0)
(1.00566 -0.0369713 0)
(1.00366 -0.0382679 0)
(1.00144 -0.0389768 0)
(0.999119 -0.0391637 0)
(0.996765 -0.038902 0)
(0.994493 -0.0381125 0)
(0.992461 -0.0366714 0)
(0.99096 -0.034704 0)
(0.990627 -0.0326339 0)
(0.992106 -0.0308822 0)
(0.994527 -0.0296347 0)
(0.995147 -0.0286397 0)
(0.992512 -0.0276567 0)
(0.988429 -0.0268317 0)
(0.985058 -0.0261705 0)
(0.982826 -0.0255506 0)
(0.981389 -0.0249406 0)
(0.980431 -0.0243437 0)
(1.00704 -0.00167879 0)
(1.00752 -0.00585378 0)
(1.00836 -0.00939287 0)
(1.00939 -0.0133976 0)
(1.01049 -0.0173799 0)
(1.01148 -0.0215287 0)
(1.01221 -0.0257043 0)
(1.01252 -0.029831 0)
(1.01227 -0.0337634 0)
(1.0114 -0.0373613 0)
(1.00989 -0.0404932 0)
(1.00779 -0.0430531 0)
(1.00521 -0.0449764 0)
(1.00231 -0.046219 0)
(0.999215 -0.046779 0)
(0.99607 -0.0467139 0)
(0.992955 -0.0462653 0)
(0.989879 -0.0458166 0)
(0.986799 -0.0455221 0)
(0.983311 -0.0451342 0)
(0.978622 -0.0442594 0)
(0.97301 -0.0427335 0)
(0.969056 -0.0408761 0)
(0.968801 -0.0391035 0)
(0.970614 -0.0373417 0)
(0.971998 -0.0355527 0)
(0.972454 -0.0339086 0)
(0.972386 -0.0324671 0)
(0.972094 -0.0312267 0)
(1.00842 -0.00183717 0)
(1.00901 -0.00637993 0)
(1.01003 -0.0102364 0)
(1.01129 -0.0146147 0)
(1.01267 -0.0189845 0)
(1.01396 -0.023585 0)
(1.01499 -0.0282802 0)
(1.01553 -0.0330149 0)
(1.01544 -0.0376462 0)
(1.01459 -0.0420268 0)
(1.01295 -0.0459948 0)
(1.01055 -0.0493926 0)
(1.00752 -0.0520962 0)
(1.00402 -0.0540211 0)
(1.00018 -0.0551508 0)
(0.996119 -0.0555271 0)
(0.992012 -0.0552073 0)
(0.988109 -0.054068 0)
(0.984742 -0.0519803 0)
(0.98249 -0.0492821 0)
(0.982219 -0.0466382 0)
(0.983774 -0.0445772 0)
(0.984338 -0.0430275 0)
(0.981147 -0.0415448 0)
(0.975659 -0.0402006 0)
(0.971024 -0.0391431 0)
(0.967986 -0.0381785 0)
(0.965956 -0.0372284 0)
(0.964507 -0.0363027 0)
(1.00979 -0.00197798 0)
(1.01048 -0.00684345 0)
(1.01168 -0.0109807 0)
(1.01318 -0.0156914 0)
(1.01486 -0.0204089 0)
(1.01648 -0.0254254 0)
(1.01784 -0.0306132 0)
(1.0187 -0.0359455 0)
(1.01887 -0.0412886 0)
(1.01819 -0.0464934 0)
(1.01658 -0.0513745 0)
(1.01403 -0.0557392 0)
(1.01062 -0.0594252 0)
(1.00648 -0.0623193 0)
(1.00177 -0.0643737 0)
(0.996695 -0.065549 0)
(0.991478 -0.0659031 0)
(0.98631 -0.0657643 0)
(0.981228 -0.065571 0)
(0.975984 -0.0653978 0)
(0.96976 -0.0647958 0)
(0.96224 -0.0632658 0)
(0.955816 -0.0609259 0)
(0.953805 -0.0584869 0)
(0.955205 -0.0561147 0)
(0.956341 -0.0536046 0)
(0.95619 -0.0512102 0)
(0.95546 -0.0490907 0)
(0.954569 -0.047244 0)
(1.01112 -0.00209983 0)
(1.01192 -0.00724033 0)
(1.01329 -0.0116189 0)
(1.01502 -0.0166164 0)
(1.017 -0.0216358 0)
(1.01896 -0.0270204 0)
(1.0207 -0.0326548 0)
(1.02195 -0.0385444 0)
(1.02248 -0.0445749 0)
(1.02209 -0.0506116 0)
(1.02063 -0.05647 0)
(1.01803 -0.061944 0)
(1.01432 -0.0668299 0)
(1.00965 -0.0709364 0)
(1.00421 -0.0741151 0)
(0.998247 -0.0762486 0)
(0.991985 -0.0773002 0)
(0.985711 -0.0772299 0)
(0.979848 -0.0758371 0)
(0.974991 -0.0731574 0)
(0.972109 -0.0698788 0)
(0.971842 -0.0669941 0)
(0.971986 -0.0649587 0)
(0.968351 -0.0631574 0)
(0.96105 -0.0612924 0)
(0.954399 -0.059778 0)
(0.950071 -0.0584493 0)
(0.947107 -0.0570997 0)
(0.944886 -0.0557748 0)
(1.01239 -0.0022025 0)
(1.01328 -0.00757034 0)
(1.01482 -0.0121499 0)
(1.01678 -0.0173874 0)
(1.01905 -0.0226586 0)
(1.02137 -0.0283563 0)
(1.02351 -0.034378 0)
(1.0252 -0.0407661 0)
(1.02617 -0.0474364 0)
(1.02617 -0.0542852 0)
(1.025 -0.0611427 0)
(1.02255 -0.0677905 0)
(1.01881 -0.0739743 0)
(1.01387 -0.0794234 0)
(1.00789 -0.0839225 0)
(1.00107 -0.0873274 0)
(0.993632 -0.089577 0)
(0.985872 -0.0907803 0)
(0.978077 -0.0914004 0)
(0.970292 -0.0919443 0)
(0.961951 -0.0922193 0)
(0.952187 -0.0913837 0)
(0.942494 -0.0889651 0)
(0.937252 -0.085847 0)
(0.937352 -0.0828582 0)
(0.938099 -0.0796562 0)
(0.937065 -0.076409 0)
(0.935345 -0.0735254 0)
(0.933605 -0.0709965 0)
(1.01358 -0.00228695 0)
(1.01456 -0.00783711 0)
(1.01625 -0.0125792 0)
(1.01844 -0.0180109 0)
(1.021 -0.0234843 0)
(1.02367 -0.0294374 0)
(1.02623 -0.0357817 0)
(1.02839 -0.0425971 0)
(1.02987 -0.0498356 0)
(1.03039 -0.0574316 0)
(1.02971 -0.065238 0)
(1.02764 -0.0730395 0)
(1.02411 -0.0805649 0)
(1.0191 -0.0875117 0)
(1.01269 -0.0936075 0)
(1.00507 -0.098617 0)
(0.996547 -0.102338 0)
(0.987508 -0.104576 0)
(0.978531 -0.105053 0)
(0.970392 -0.103518 0)
(0.964049 -0.100343 0)
(0.960675 -0.096793 0)
(0.959425 -0.0942079 0)
(0.955396 -0.0923422 0)
(0.946114 -0.090136 0)
(0.936402 -0.0880567 0)
(0.930021 -0.0863303 0)
(0.92571 -0.0844881 0)
(0.922365 -0.0826099 0)
(1.01468 -0.002355 0)
(1.01575 -0.0080472 0)
(1.01759 -0.0129168 0)
(1.01998 -0.0185011 0)
(1.02282 -0.0241302 0)
(1.02584 -0.0302832 0)
(1.02882 -0.0368837 0)
(1.03148 -0.0440469 0)
(1.03353 -0.0517617 0)
(1.03467 -0.0600065 0)
(1.0346 -0.0686744 0)
(1.03308 -0.0775825 0)
(1.02993 -0.0864765 0)
(1.02504 -0.0950327 0)
(1.01845 -0.102893 0)
(1.01031 -0.109695 0)
(1.00089 -0.115137 0)
(0.990543 -0.119055 0)
(0.979714 -0.121645 0)
(0.968736 -0.123665 0)
(0.957403 -0.125555 0)
(0.944778 -0.126419 0)
(0.931123 -0.124879 0)
(0.920898 -0.121263 0)
(0.917941 -0.117402 0)
(0.917921 -0.11349 0)
(0.915738 -0.109194 0)
(0.912469 -0.105289 0)
(0.909451 -0.101892 0)
(1.01569 -0.00240899 0)
(1.01684 -0.00820879 0)
(1.01882 -0.0131758 0)
(1.02141 -0.0188763 0)
(1.02451 -0.0246196 0)
(1.02787 -0.0309217 0)
(1.03126 -0.0377152 0)
(1.03442 -0.0451459 0)
(1.03706 -0.0532399 0)
(1.03886 -0.0620266 0)
(1.0395 -0.0714539 0)
(1.03866 -0.0813889 0)
(1.03609 -0.091604 0)
(1.03163 -0.101764 0)
(1.0252 -0.111459 0)
(1.01684 -0.120258 0)
(1.00671 -0.127786 0)
(0.9952 -0.133732 0)
(0.982983 -0.1377 0)
(0.971013 -0.139088 0)
(0.960378 -0.137557 0)
(0.95244 -0.134033 0)
(0.947918 -0.13074 0)
(0.942892 -0.128928 0)
(0.931814 -0.126982 0)
(0.917861 -0.12433 0)
(0.907988 -0.122059 0)
(0.901657 -0.119632 0)
(0.896611 -0.116922 0)
(1.01662 -0.00245136 0)
(1.01784 -0.00833033 0)
(1.01995 -0.0133696 0)
(1.02272 -0.0191559 0)
(1.02607 -0.0249783 0)
(1.02974 -0.0313852 0)
(1.03352 -0.0383152 0)
(1.03717 -0.0459393 0)
(1.0404 -0.0543201 0)
(1.04289 -0.0635391 0)
(1.04431 -0.0736024 0)
(1.0443 -0.0844336 0)
(1.04255 -0.0958484 0)
(1.0388 -0.10754 0)
(1.03284 -0.119105 0)
(1.02455 -0.130064 0)
(1.01402 -0.139925 0)
(1.00164 -0.148231 0)
(0.987986 -0.154671 0)
(0.973567 -0.15958 0)
(0.958442 -0.163941 0)
(0.942096 -0.167703 0)
(0.923972 -0.168838 0)
(0.907105 -0.165803 0)
(0.898044 -0.160784 0)
(0.895821 -0.155947 0)
(0.892263 -0.150479 0)
(0.886563 -0.14504 0)
(0.881498 -0.140387 0)
(1.01748 -0.00248436 0)
(1.01876 -0.00841969 0)
(1.02098 -0.0135108 0)
(1.02392 -0.0193583 0)
(1.02749 -0.0252309 0)
(1.03145 -0.031706 0)
(1.03561 -0.038724 0)
(1.03972 -0.0464764 0)
(1.04352 -0.0550579 0)
(1.04672 -0.0645973 0)
(1.04897 -0.0751581 0)
(1.0499 -0.0867295 0)
(1.04913 -0.0991963 0)
(1.0463 -0.112315 0)
(1.04107 -0.125712 0)
(1.03321 -0.138881 0)
(1.02271 -0.151253 0)
(1.00982 -0.1623 0)
(0.995082 -0.171482 0)
(0.979329 -0.178012 0)
(0.963765 -0.180765 0)
(0.94992 -0.179375 0)
(0.939598 -0.175929 0)
(0.931685 -0.173964 0)
(0.919066 -0.173099 0)
(0.900128 -0.170446 0)
(0.884155 -0.167276 0)
(0.874301 -0.164153 0)
(0.866552 -0.160217 0)
(1.01825 -0.00250997 0)
(1.01959 -0.00848374 0)
(1.02193 -0.0136107 0)
(1.02501 -0.0194994 0)
(1.02879 -0.0253994 0)
(1.03302 -0.0319135 0)
(1.03751 -0.0389794 0)
(1.04205 -0.0468038 0)
(1.04642 -0.0555082 0)
(1.05031 -0.0652626 0)
(1.0534 -0.076187 0)
(1.05531 -0.0883446 0)
(1.05562 -0.101702 0)
(1.05387 -0.116089 0)
(1.04966 -0.131187 0)
(1.04263 -0.14651 0)
(1.03259 -0.161471 0)
(1.01966 -0.175465 0)
(1.00426 -0.187813 0)
(0.986889 -0.197977 0)
(0.967793 -0.206511 0)
(0.946864 -0.214544 0)
(0.923649 -0.220745 0)
(0.89911 -0.221241 0)
(0.880115 -0.215979 0)
(0.871875 -0.209748 0)
(0.866262 -0.203305 0)
(0.85705 -0.195785 0)
(0.848343 -0.189122 0)
(1.01897 -0.0025298 0)
(1.02036 -0.00852822 0)
(1.02279 -0.0136786 0)
(1.02601 -0.019593 0)
(1.02997 -0.0255031 0)
(1.03444 -0.0320334 0)
(1.03924 -0.0391146 0)
(1.04418 -0.0469649 0)
(1.04907 -0.0557263 0)
(1.05363 -0.0656049 0)
(1.05754 -0.0767742 0)
(1.06043 -0.0893695 0)
(1.06186 -0.103439 0)
(1.06136 -0.118895 0)
(1.05843 -0.135499 0)
(1.05257 -0.152842 0)
(1.04343 -0.170366 0)
(1.03097 -0.18744 0)
(1.01542 -0.203346 0)
(0.997174 -0.217118 0)
(0.977076 -0.227309 0)
(0.956912 -0.232095 0)
(0.938873 -0.231354 0)
(0.924587 -0.229305 0)
(0.90936 -0.230067 0)
(0.88568 -0.229625 0)
(0.860116 -0.225739 0)
(0.843118 -0.221641 0)
(0.830887 -0.216303 0)
(1.01962 -0.00254515 0)
(1.02106 -0.0085578 0)
(1.02358 -0.0137223 0)
(1.02692 -0.0196504 0)
(1.03105 -0.0255577 0)
(1.03573 -0.0320872 0)
(1.04081 -0.0391585 0)
(1.04612 -0.0469987 0)
(1.05148 -0.055765 0)
(1.05665 -0.0656931 0)
(1.06134 -0.0770021 0)
(1.06521 -0.0898926 0)
(1.06782 -0.104492 0)
(1.06865 -0.120803 0)
(1.06715 -0.13869 0)
(1.06273 -0.157849 0)
(1.0549 -0.177792 0)
(1.04344 -0.197903 0)
(1.02839 -0.217428 0)
(1.00986 -0.235333 0)
(0.987954 -0.250889 0)
(0.962719 -0.265089 0)
(0.934051 -0.278815 0)
(0.901853 -0.288123 0)
(0.869921 -0.28717 0)
(0.848755 -0.279704 0)
(0.837878 -0.272427 0)
(0.824271 -0.263312 0)
(0.808969 -0.253543 0)
(1.02022 -0.00255699 0)
(1.0217 -0.00857616 0)
(1.0243 -0.0137481 0)
(1.02774 -0.0196808 0)
(1.03203 -0.0255758 0)
(1.0369 -0.0320924 0)
(1.04223 -0.0391352 0)
(1.04787 -0.0469387 0)
(1.05365 -0.0556698 0)
(1.05939 -0.065586 0)
(1.06483 -0.0769443 0)
(1.06964 -0.0900022 0)
(1.07341 -0.104964 0)
(1.07562 -0.121927 0)
(1.07564 -0.140861 0)
(1.07285 -0.161576 0)
(1.06668 -0.183696 0)
(1.05671 -0.206675 0)
(1.04276 -0.229832 0)
(1.02465 -0.252209 0)
(1.00241 -0.272363 0)
(0.977157 -0.287945 0)
(0.951234 -0.295963 0)
(0.927237 -0.29716 0)
(0.905876 -0.299453 0)
(0.878369 -0.304518 0)
(0.841184 -0.303347 0)
(0.809942 -0.298004 0)
(0.789393 -0.291732 0)
(1.02076 -0.00256612 0)
(1.02228 -0.00858618 0)
(1.02495 -0.0137607 0)
(1.02849 -0.0196913 0)
(1.03292 -0.0255676 0)
(1.03796 -0.0320626 0)
(1.04351 -0.0390638 0)
(1.04944 -0.0468117 0)
(1.05562 -0.0554775 0)
(1.06188 -0.0653335 0)
(1.068 -0.0766674 0)
(1.0737 -0.0897872 0)
(1.07859 -0.104968 0)
(1.08214 -0.122395 0)
(1.08373 -0.142134 0)
(1.08271 -0.164116 0)
(1.07845 -0.188107 0)
(1.07039 -0.213678 0)
(1.05813 -0.240237 0)
(1.0413 -0.266907 0)
(1.01948 -0.292339 0)
(0.992338 -0.315872 0)
(0.959538 -0.339245 0)
(0.920752 -0.362154 0)
(0.876424 -0.375283 0)
(0.835197 -0.372133 0)
(0.809665 -0.363693 0)
(0.790171 -0.355222 0)
(0.764943 -0.34223 0)
(1.02126 -0.00257314 0)
(1.02281 -0.00859011 0)
(1.02554 -0.0137639 0)
(1.02916 -0.0196875 0)
(1.03373 -0.0255409 0)
(1.0389 -0.0320089 0)
(1.04466 -0.0389596 0)
(1.05085 -0.046639 0)
(1.05738 -0.0552179 0)
(1.06411 -0.0649782 0)
(1.07086 -0.0762325 0)
(1.07739 -0.089331 0)
(1.08332 -0.10461 0)
(1.08817 -0.122331 0)
(1.09133 -0.142651 0)
(1.09213 -0.165614 0)
(1.08994 -0.191137 0)
(1.0841 -0.218939 0)
(1.07403 -0.248549 0)
(1.05914 -0.279328 0)
(1.03873 -0.310228 0)
(1.01246 -0.33937 0)
(0.981665 -0.363102 0)
(0.948716 -0.376537 0)
(0.91625 -0.382437 0)
(0.882982 -0.394074 0)
(0.836746 -0.404903 0)
(0.783058 -0.401648 0)
(0.744153 -0.394672 0)
(1.0217 -0.00257854 0)
(1.02328 -0.00858971 0)
(1.02607 -0.0137606 0)
(1.02976 -0.0196739 0)
(1.03444 -0.025502 0)
(1.03975 -0.0319395 0)
(1.04568 -0.0388344 0)
(1.05211 -0.0464377 0)
(1.05895 -0.0549155 0)
(1.0661 -0.064556 0)
(1.07342 -0.0756906 0)
(1.08069 -0.0887032 0)
(1.0876 -0.103979 0)
(1.09369 -0.121849 0)
(1.09837 -0.142552 0)
(1.10099 -0.166234 0)
(1.10092 -0.192945 0)
(1.09749 -0.222574 0)
(1.08998 -0.254802 0)
(1.07764 -0.289191 0)
(1.05972 -0.324969 0)
(1.03512 -0.360656 0)
(1.00252 -0.395985 0)
(0.960978 -0.434121 0)
(0.909307 -0.472401 0)
(0.847702 -0.491291 0)
(0.792474 -0.485773 0)
(0.757025 -0.478639 0)
(0.720859 -0.467127 0)
(1.0221 -0.0025827 0)
(1.0237 -0.00858635 0)
(1.02655 -0.0137529 0)
(1.0303 -0.0196538 0)
(1.03508 -0.0254557 0)
(1.0405 -0.0318609 0)
(1.0466 -0.0386975 0)
(1.05322 -0.0462212 0)
(1.06033 -0.0545901 0)
(1.06786 -0.0640956 0)
(1.07569 -0.0750827 0)
(1.08365 -0.0879614 0)
(1.09146 -0.103157 0)
(1.09871 -0.121059 0)
(1.10483 -0.14198 0)
(1.10921 -0.166151 0)
(1.11123 -0.193732 0)
(1.11028 -0.224775 0)
(1.10558 -0.259138 0)
(1.09624 -0.29656 0)
(1.08143 -0.336735 0)
(1.05989 -0.378892 0)
(1.0304 -0.420786 0)
(0.994066 -0.456839 0)
(0.952512 -0.479226 0)
(0.908112 -0.495754 0)
(0.855876 -0.526109 0)
(0.780358 -0.543704 0)
(0.70294 -0.536 0)
(1.02245 -0.0025859 0)
(1.02408 -0.00858108 0)
(1.02697 -0.0137424 0)
(1.03078 -0.0196297 0)
(1.03565 -0.0254056 0)
(1.04117 -0.0317779 0)
(1.0474 -0.038556 0)
(1.05421 -0.0459997 0)
(1.06156 -0.0542564 0)
(1.06941 -0.063619 0)
(1.07769 -0.0744406 0)
(1.08627 -0.0871517 0)
(1.09491 -0.102211 0)
(1.10322 -0.120054 0)
(1.11068 -0.141058 0)
(1.11672 -0.165524 0)
(1.12077 -0.1937 0)
(1.12226 -0.225763 0)
(1.12047 -0.261765 0)
(1.11445 -0.30164 0)
(1.10326 -0.345352 0)
(1.08593 -0.392671 0)
(1.06031 -0.442389 0)
(1.02266 -0.494887 0)
(0.971731 -0.557048 0)
(0.904665 -0.623406 0)
(0.815948 -0.653233 0)
(0.733342 -0.646062 0)
(0.676027 -0.641655 0)
(1.02277 -0.00258836 0)
(1.02442 -0.00857467 0)
(1.02735 -0.0137304 0)
(1.03121 -0.0196036 0)
(1.03616 -0.0253542 0)
(1.04176 -0.0316942 0)
(1.04812 -0.0384153 0)
(1.05507 -0.0457806 0)
(1.06263 -0.0539257 0)
(1.07077 -0.063143 0)
(1.07945 -0.07379 0)
(1.08858 -0.0863128 0)
(1.09796 -0.101197 0)
(1.10723 -0.118916 0)
(1.11593 -0.139897 0)
(1.12353 -0.1645 0)
(1.12949 -0.193044 0)
(1.13331 -0.225793 0)
(1.13437 -0.262956 0)
(1.13182 -0.3047 0)
(1.1246 -0.351165 0)
(1.11179 -0.40269 0)
(1.09179 -0.459695 0)
(1.0616 -0.520101 0)
(1.02047 -0.574944 0)
(0.968856 -0.611693 0)
(0.908842 -0.652674 0)
(0.823531 -0.72396 0)
(0.69097 -0.744896 0)
(1.02304 -0.00259024 0)
(1.02472 -0.00856769 0)
(1.02768 -0.0137176 0)
(1.03159 -0.0195769 0)
(1.0366 -0.0253034 0)
(1.04228 -0.0316122 0)
(1.04874 -0.0382789 0)
(1.05583 -0.0455693 0)
(1.06357 -0.0536059 0)
(1.07196 -0.0626801 0)
(1.081 -0.0731504 0)
(1.09061 -0.0854744 0)
(1.10064 -0.100158 0)
(1.11079 -0.117707 0)
(1.12061 -0.138587 0)
(1.12962 -0.163204 0)
(1.13737 -0.191933 0)
(1.14337 -0.225097 0)
(1.14711 -0.262999 0)
(1.14798 -0.306028 0)
(1.14499 -0.354579 0)
(1.13698 -0.409087 0)
(1.12342 -0.470721 0)
(1.10111 -0.539844 0)
(1.06039 -0.616741 0)
(1.00106 -0.717657 0)
(0.923308 -0.844037 0)
(0.784908 -0.906845 0)
(0.618727 -0.893589 0)
(1.02329 -0.00259168 0)
(1.02498 -0.00856057 0)
(1.02797 -0.0137048 0)
(1.03192 -0.0195506 0)
(1.03699 -0.0252546 0)
(1.04274 -0.0315339 0)
(1.0493 -0.0381497 0)
(1.05649 -0.0453695 0)
(1.06439 -0.0533029 0)
(1.073 -0.0622394 0)
(1.08234 -0.0725363 0)
(1.09238 -0.0846594 0)
(1.10299 -0.0991308 0)
(1.11391 -0.116481 0)
(1.12474 -0.137204 0)
(1.13504 -0.161746 0)
(1.1444 -0.190517 0)
(1.15243 -0.223891 0)
(1.15865 -0.262209 0)
(1.16266 -0.305985 0)
(1.16392 -0.355947 0)
(1.16105 -0.412595 0)
(1.1533 -0.477226 0)
(1.14011 -0.553702 0)
(1.11616 -0.642163 0)
(1.07613 -0.724938 0)
(1.01536 -0.783783 0)
(0.936167 -0.891473 0)
(0.767158 -1.06199 0)
(1.02351 -0.00259276 0)
(1.02521 -0.00855359 0)
(1.02823 -0.0136922 0)
(1.03222 -0.0195254 0)
(1.03734 -0.0252086 0)
(1.04314 -0.0314603 0)
(1.04978 -0.038029 0)
(1.05707 -0.0451833 0)
(1.06511 -0.0530203 0)
(1.0739 -0.0618267 0)
(1.0835 -0.0719572 0)
(1.09392 -0.083883 0)
(1.10504 -0.0981385 0)
(1.11664 -0.115273 0)
(1.12837 -0.135806 0)
(1.13981 -0.160208 0)
(1.15062 -0.188916 0)
(1.16049 -0.222336 0)
(1.16899 -0.260835 0)
(1.17583 -0.304939 0)
(1.18098 -0.355627 0)
(1.1834 -0.413738 0)
(1.18157 -0.480136 0)
(1.17731 -0.559056 0)
(1.16871 -0.654335 0)
(1.13399 -0.759472 0)
(1.07326 -0.914139 0)
(1.00544 -1.1915 0)
(0.716416 -1.30351 0)
(0.999077 -0.00195358 0)
(0.999282 -0.00180409 0)
(0.999395 -0.00165068 0)
(0.999419 -0.00149314 0)
(0.999348 -0.0013313 0)
(0.999167 -0.00116495 0)
(0.998851 -0.000994253 0)
(0.99837 -0.00082004 0)
(0.997685 -0.00064405 0)
(0.996759 -0.000469259 0)
(0.995559 -0.000300146 0)
(0.994069 -0.000142831 0)
(0.992295 -4.95744e-06 0)
(0.99028 0.000104768 0)
(0.988106 0.000177442 0)
(0.985898 0.000205199 0)
(0.983819 0.00018266 0)
(0.982051 0.000108316 0)
(0.980772 -1.44381e-05 0)
(0.996743 -0.00959183 0)
(0.996447 -0.0095072 0)
(0.99623 -0.0094218 0)
(0.996089 -0.00933814 0)
(0.996032 -0.00925728 0)
(0.996082 -0.0091807 0)
(0.996274 -0.00911005 0)
(0.996661 -0.0090468 0)
(0.997306 -0.00899182 0)
(0.99828 -0.0089449 0)
(0.999654 -0.008904 0)
(1.00148 -0.00886453 0)
(1.00379 -0.00881884 0)
(1.00655 -0.00875601 0)
(1.00966 -0.0086624 0)
(1.01296 -0.008523 0)
(1.01622 -0.00832354 0)
(1.01913 -0.00805324 0)
(1.02141 -0.00770747 0)
(0.994895 -0.0147881 0)
(0.995069 -0.014526 0)
(0.995181 -0.0142625 0)
(0.99524 -0.0139969 0)
(0.995246 -0.0137286 0)
(0.99519 -0.0134558 0)
(0.995049 -0.013176 0)
(0.994789 -0.0128855 0)
(0.99436 -0.0125801 0)
(0.9937 -0.012255 0)
(0.992736 -0.0119055 0)
(0.991395 -0.0115281 0)
(0.989618 -0.0111212 0)
(0.98738 -0.0106867 0)
(0.984708 -0.0102302 0)
(0.981703 -0.00976129 0)
(0.978551 -0.0092925 0)
(0.975507 -0.00883757 0)
(0.972874 -0.00840897 0)
(0.990945 -0.0171531 0)
(0.990604 -0.0168236 0)
(0.99033 -0.0164808 0)
(0.990109 -0.0161268 0)
(0.989934 -0.0157618 0)
(0.98981 -0.015386 0)
(0.989753 -0.0150008 0)
(0.98979 -0.0146077 0)
(0.989963 -0.0142091 0)
(0.99033 -0.0138081 0)
(0.990961 -0.0134079 0)
(0.991931 -0.0130118 0)
(0.993307 -0.0126219 0)
(0.99513 -0.0122383 0)
(0.997389 -0.0118584 0)
(1 -0.0114767 0)
(1.00281 -0.011085 0)
(1.00556 -0.0106742 0)
(1.00796 -0.0102361 0)
(0.985419 -0.0215199 0)
(0.98534 -0.0209532 0)
(0.985213 -0.0203797 0)
(0.985049 -0.0197996 0)
(0.984851 -0.0192146 0)
(0.984615 -0.018625 0)
(0.984329 -0.018031 0)
(0.983972 -0.0174321 0)
(0.983512 -0.0168273 0)
(0.9829 -0.0162148 0)
(0.982074 -0.0155919 0)
(0.980959 -0.0149556 0)
(0.979479 -0.0143034 0)
(0.977574 -0.0136334 0)
(0.975223 -0.0129459 0)
(0.972471 -0.0122434 0)
(0.969449 -0.0115305 0)
(0.966383 -0.0108129 0)
(0.963574 -0.010096 0)
(0.979752 -0.023773 0)
(0.979209 -0.0232094 0)
(0.978736 -0.0226259 0)
(0.978315 -0.0220245 0)
(0.977939 -0.021404 0)
(0.977607 -0.0207635 0)
(0.977326 -0.0201026 0)
(0.977111 -0.019421 0)
(0.97699 -0.0187188 0)
(0.977001 -0.0179968 0)
(0.977198 -0.0172565 0)
(0.977645 -0.0164995 0)
(0.978413 -0.0157279 0)
(0.979557 -0.0149431 0)
(0.981101 -0.0141456 0)
(0.983007 -0.0133349 0)
(0.985157 -0.0125095 0)
(0.987346 -0.0116688 0)
(0.989298 -0.0108142 0)
(0.971725 -0.030157 0)
(0.971319 -0.0291509 0)
(0.970869 -0.028125 0)
(0.970387 -0.0270802 0)
(0.969876 -0.0260188 0)
(0.969335 -0.0249423 0)
(0.968758 -0.0238521 0)
(0.96813 -0.0227497 0)
(0.967429 -0.021637 0)
(0.966621 -0.0205157 0)
(0.965659 -0.0193882 0)
(0.964483 -0.0182569 0)
(0.963023 -0.0171255 0)
(0.961217 -0.0159986 0)
(0.959033 -0.0148828 0)
(0.956495 -0.0137856 0)
(0.953717 -0.0127146 0)
(0.950912 -0.0116747 0)
(0.94838 -0.0106657 0)
(0.963405 -0.0354168 0)
(0.962469 -0.0345409 0)
(0.961601 -0.0336332 0)
(0.960788 -0.0326975 0)
(0.960023 -0.0317328 0)
(0.959307 -0.0307395 0)
(0.958648 -0.0297184 0)
(0.958064 -0.0286709 0)
(0.95758 -0.0275988 0)
(0.957236 -0.0265041 0)
(0.957085 -0.0253891 0)
(0.957194 -0.0242551 0)
(0.957637 -0.0231025 0)
(0.958482 -0.0219289 0)
(0.959768 -0.0207286 0)
(0.961468 -0.0194927 0)
(0.963464 -0.0182102 0)
(0.965528 -0.016872 0)
(0.967341 -0.0154754 0)
(0.953676 -0.0456392 0)
(0.952786 -0.0441207 0)
(0.951866 -0.0425653 0)
(0.950932 -0.0409756 0)
(0.949994 -0.0393562 0)
(0.949059 -0.0377102 0)
(0.948128 -0.0360405 0)
(0.947196 -0.0343505 0)
(0.946251 -0.0326435 0)
(0.945267 -0.0309225 0)
(0.944201 -0.0291908 0)
(0.942989 -0.0274523 0)
(0.941549 -0.0257118 0)
(0.939793 -0.0239771 0)
(0.937649 -0.0222594 0)
(0.935103 -0.0205738 0)
(0.932245 -0.018938 0)
(0.9293 -0.0173666 0)
(0.926623 -0.0158646 0)
(0.943142 -0.0545003 0)
(0.941625 -0.053235 0)
(0.9402 -0.0519201 0)
(0.938854 -0.0505624 0)
(0.937583 -0.0491631 0)
(0.936393 -0.0477245 0)
(0.935291 -0.0462494 0)
(0.934293 -0.0447409 0)
(0.933421 -0.0432016 0)
(0.932709 -0.0416338 0)
(0.932203 -0.0400391 0)
(0.931968 -0.0384176 0)
(0.932084 -0.0367666 0)
(0.932636 -0.0350789 0)
(0.933693 -0.0333408 0)
(0.93526 -0.0315306 0)
(0.937229 -0.02962 0)
(0.939337 -0.0275807 0)
(0.941175 -0.0253955 0)
(0.931976 -0.0687818 0)
(0.93042 -0.0666766 0)
(0.928866 -0.0645109 0)
(0.927335 -0.0622893 0)
(0.925844 -0.0600155 0)
(0.924402 -0.0576912 0)
(0.923014 -0.0553178 0)
(0.921677 -0.0528962 0)
(0.92038 -0.0504278 0)
(0.919098 -0.0479138 0)
(0.917786 -0.0453558 0)
(0.91637 -0.0427568 0)
(0.91475 -0.0401222 0)
(0.912797 -0.0374625 0)
(0.91038 -0.0347964 0)
(0.907418 -0.0321537 0)
(0.903951 -0.0295751 0)
(0.900219 -0.0271052 0)
(0.896697 -0.0247771 0)
(0.919709 -0.0807862 0)
(0.917384 -0.0789495 0)
(0.915187 -0.077017 0)
(0.913103 -0.0750008 0)
(0.911129 -0.0729076 0)
(0.909267 -0.0707456 0)
(0.907522 -0.0685238 0)
(0.905905 -0.0662513 0)
(0.904434 -0.0639368 0)
(0.903133 -0.0615885 0)
(0.902043 -0.0592133 0)
(0.901226 -0.0568167 0)
(0.900775 -0.0544009 0)
(0.90081 -0.0519622 0)
(0.901461 -0.0494863 0)
(0.902817 -0.0469429 0)
(0.904842 -0.0442819 0)
(0.907271 -0.0414382 0)
(0.909561 -0.0383515 0)
(0.906712 -0.0988752 0)
(0.90415 -0.0959973 0)
(0.901639 -0.0930244 0)
(0.899209 -0.0899644 0)
(0.896883 -0.0868197 0)
(0.894674 -0.0835896 0)
(0.89259 -0.080273 0)
(0.890631 -0.0768687 0)
(0.888789 -0.0733758 0)
(0.887041 -0.069794 0)
(0.885345 -0.066123 0)
(0.88363 -0.0623641 0)
(0.881781 -0.0585203 0)
(0.879635 -0.0546003 0)
(0.876986 -0.0506234 0)
(0.873629 -0.0466287 0)
(0.869463 -0.0426826 0)
(0.864651 -0.0388784 0)
(0.859762 -0.0353151 0)
(0.892585 -0.114255 0)
(0.889069 -0.111508 0)
(0.885742 -0.108565 0)
(0.882595 -0.105454 0)
(0.879623 -0.102192 0)
(0.876826 -0.0988044 0)
(0.874208 -0.0953145 0)
(0.871776 -0.0917466 0)
(0.869541 -0.0881244 0)
(0.867517 -0.0844712 0)
(0.865733 -0.080809 0)
(0.864238 -0.0771587 0)
(0.863118 -0.0735393 0)
(0.862511 -0.0699645 0)
(0.862612 -0.0664378 0)
(0.86364 -0.0629404 0)
(0.865737 -0.0594153 0)
(0.868777 -0.0557552 0)
(0.872158 -0.0518142 0)
(0.877037 -0.136175 0)
(0.872892 -0.13211 0)
(0.868906 -0.127887 0)
(0.865106 -0.123506 0)
(0.861529 -0.118979 0)
(0.8582 -0.114305 0)
(0.855131 -0.109488 0)
(0.852328 -0.104533 0)
(0.849788 -0.0994444 0)
(0.847495 -0.0942291 0)
(0.845415 -0.0888923 0)
(0.84349 -0.0834392 0)
(0.841617 -0.0778749 0)
(0.839627 -0.0722056 0)
(0.837262 -0.0664449 0)
(0.83418 -0.0606257 0)
(0.830023 -0.0548242 0)
(0.824644 -0.0491809 0)
(0.818464 -0.0439025 0)
(0.860219 -0.156165 0)
(0.854776 -0.151922 0)
(0.849633 -0.147248 0)
(0.84482 -0.142244 0)
(0.840343 -0.136939 0)
(0.836205 -0.131392 0)
(0.832422 -0.125654 0)
(0.829001 -0.119779 0)
(0.825951 -0.113822 0)
(0.823277 -0.107839 0)
(0.82099 -0.101887 0)
(0.819112 -0.0960242 0)
(0.817695 -0.0903098 0)
(0.816849 -0.0848009 0)
(0.816771 -0.0795483 0)
(0.817776 -0.0745851 0)
(0.820245 -0.0698947 0)
(0.824412 -0.0653743 0)
(0.829933 -0.0607834 0)
(0.841073 -0.183088 0)
(0.834265 -0.177026 0)
(0.827832 -0.170655 0)
(0.821807 -0.163918 0)
(0.816238 -0.156858 0)
(0.811193 -0.149502 0)
(0.806694 -0.141878 0)
(0.802768 -0.134033 0)
(0.799423 -0.126009 0)
(0.796659 -0.117851 0)
(0.794453 -0.109598 0)
(0.792762 -0.101288 0)
(0.791501 -0.0929467 0)
(0.790525 -0.0845941 0)
(0.789576 -0.0762446 0)
(0.788235 -0.0679132 0)
(0.785883 -0.0596604 0)
(0.78184 -0.051625 0)
(0.775797 -0.0441046 0)
(0.820364 -0.209999 0)
(0.81146 -0.20334 0)
(0.803099 -0.195743 0)
(0.795337 -0.187454 0)
(0.788292 -0.178559 0)
(0.781964 -0.169149 0)
(0.77643 -0.159349 0)
(0.77171 -0.149261 0)
(0.767832 -0.139005 0)
(0.764796 -0.128706 0)
(0.762597 -0.118495 0)
(0.761221 -0.108509 0)
(0.760665 -0.098895 0)
(0.760958 -0.0898047 0)
(0.762215 -0.0813893 0)
(0.764704 -0.0738027 0)
(0.768936 -0.0671336 0)
(0.775551 -0.0614054 0)
(0.78504 -0.0564156 0)
(0.796648 -0.244927 0)
(0.785152 -0.235717 0)
(0.774267 -0.225706 0)
(0.764301 -0.214859 0)
(0.755222 -0.203179 0)
(0.747251 -0.190832 0)
(0.740429 -0.177899 0)
(0.734844 -0.164541 0)
(0.730526 -0.150903 0)
(0.727505 -0.137139 0)
(0.72577 -0.123397 0)
(0.725285 -0.109814 0)
(0.725974 -0.0965035 0)
(0.7277 -0.0835496 0)
(0.730219 -0.0710112 0)
(0.733105 -0.0588802 0)
(0.735563 -0.0472178 0)
(0.736525 -0.0360876 0)
(0.734259 -0.0257139 0)
(0.771616 -0.282467 0)
(0.756108 -0.272026 0)
(0.741907 -0.259885 0)
(0.728666 -0.246099 0)
(0.716929 -0.231117 0)
(0.706681 -0.215001 0)
(0.698124 -0.198043 0)
(0.691324 -0.180462 0)
(0.68637 -0.162507 0)
(0.683266 -0.144435 0)
(0.682015 -0.126517 0)
(0.682569 -0.109032 0)
(0.684858 -0.0922781 0)
(0.688803 -0.076578 0)
(0.694364 -0.0622577 0)
(0.701607 -0.0497526 0)
(0.711057 -0.0393165 0)
(0.723238 -0.031297 0)
(0.739985 -0.0259498 0)
(0.742733 -0.32976 0)
(0.723163 -0.316401 0)
(0.704061 -0.300497 0)
(0.686957 -0.282962 0)
(0.671599 -0.26345 0)
(0.658459 -0.242476 0)
(0.647649 -0.220295 0)
(0.639364 -0.197232 0)
(0.633632 -0.173649 0)
(0.630548 -0.149883 0)
(0.630088 -0.12628 0)
(0.632229 -0.10318 0)
(0.636886 -0.0809023 0)
(0.643922 -0.0597197 0)
(0.653088 -0.0399048 0)
(0.664041 -0.0214148 0)
(0.675558 -0.0044861 0)
(0.686967 0.0109801 0)
(0.694701 0.0252295 0)
(0.714715 -0.383484 0)
(0.686958 -0.367102 0)
(0.662297 -0.348199 0)
(0.639504 -0.325655 0)
(0.619596 -0.300679 0)
(0.602722 -0.273614 0)
(0.589187 -0.24487 0)
(0.579005 -0.21503 0)
(0.572392 -0.184496 0)
(0.569278 -0.153732 0)
(0.569722 -0.123184 0)
(0.573673 -0.0933058 0)
(0.581069 -0.0645832 0)
(0.591791 -0.0375919 0)
(0.605729 -0.0128311 0)
(0.622472 0.00856564 0)
(0.643122 0.0262198 0)
(0.666626 0.0388854 0)
(0.696751 0.0448241 0)
(0.68044 -0.448109 0)
(0.64634 -0.429183 0)
(0.613495 -0.404177 0)
(0.584176 -0.375427 0)
(0.558838 -0.343424 0)
(0.537826 -0.308528 0)
(0.521106 -0.271896 0)
(0.509064 -0.233885 0)
(0.501385 -0.195147 0)