/*--------------------------------*- C++ -*----------------------------------*\
  =========                 |
  \\      /  F ield         | OpenFOAM: The Open Source CFD Toolbox
   \\    /   O peration     | Website:  https://openfoam.org
    \\  /    A nd           | Version:  10
     \\/     M anipulation  |
\*---------------------------------------------------------------------------*/
FoamFile
{
    format      ascii;
    class       volVectorField;
    location    "0";
    object      U;
}
// * * * * * * * * * * * * * * * * * * * * * * * * * * * * * * * * * * * * * //

dimensions      [0 1 -1 0 0 0 0];

internalField   nonuniform List<vector> 
18483
(
(1 -0.000184708 0)
(1 -0.000656511 0)
(1 -0.0010362 0)
(1 -0.00143786 0)
(1 -0.00181358 0)
(1 -0.00217229 0)
(1 -0.0025017 0)
(1 -0.00279354 0)
(1 -0.00304007 0)
(1 -0.00323544 0)
(1 -0.00337638 0)
(1 -0.00346359 0)
(1 -0.00350017 0)
(0.999991 -0.00352379 0)
(0.999966 -0.00358783 0)
(0.999917 -0.00373055 0)
(0.99982 -0.00392419 0)
(0.999571 -0.00408011 0)
(0.998894 -0.00412288 0)
(0.997454 -0.00399111 0)
(0.995398 -0.00367297 0)
(0.993696 -0.0032909 0)
(0.993302 -0.00297219 0)
(0.994154 -0.00272087 0)
(0.995511 -0.00251736 0)
(0.996774 -0.00234871 0)
(0.997725 -0.00220746 0)
(0.99837 -0.00209046 0)
(0.998785 -0.00199486 0)
(1.00057 -0.000534314 0)
(1.00058 -0.00188551 0)
(1.00062 -0.0029713 0)
(1.00067 -0.00412453 0)
(1.00071 -0.00519901 0)
(1.00074 -0.00622585 0)
(1.00074 -0.00716871 0)
(1.00072 -0.00800411 0)
(1.00066 -0.00870734 0)
(1.00057 -0.00925994 0)
(1.00044 -0.00966043 0)
(1.00029 -0.00995216 0)
(1.00015 -0.0101809 0)
(1.00004 -0.0102955 0)
(1 -0.0102058 0)
(0.999997 -0.00982095 0)
(0.999936 -0.00916322 0)
(0.999811 -0.00840415 0)
(0.999789 -0.00769062 0)
(1.00026 -0.00717764 0)
(1.00154 -0.00701913 0)
(1.00313 -0.00708972 0)
(1.00392 -0.00712109 0)
(1.00344 -0.00708251 0)
(1.00226 -0.00701503 0)
(1.00105 -0.00692975 0)
(1.00012 -0.0068325 0)
(0.999483 -0.00672495 0)
(0.999069 -0.00660987 0)
(1.00163 -0.000852006 0)
(1.00168 -0.00298803 0)
(1.0018 -0.00470618 0)
(1.00191 -0.00654275 0)
(1.00203 -0.00825451 0)
(1.00211 -0.00990063 0)
(1.00212 -0.0114224 0)
(1.00206 -0.0127835 0)
(1.00189 -0.0139443 0)
(1.00163 -0.0148822 0)
(1.00128 -0.0155746 0)
(1.0009 -0.016011 0)
(1.00057 -0.0161836 0)
(1.0003 -0.0160633 0)
(1.00001 -0.0157715 0)
(0.999565 -0.0155809 0)
(0.998924 -0.015602 0)
(0.998072 -0.015701 0)
(0.996894 -0.0156641 0)
(0.995247 -0.0153154 0)
(0.99321 -0.0145427 0)
(0.991264 -0.013481 0)
(0.990207 -0.0124844 0)
(0.990431 -0.0116684 0)
(0.99145 -0.0109498 0)
(0.992548 -0.0103047 0)
(0.993378 -0.00973572 0)
(0.993901 -0.00924288 0)
(0.994193 -0.00882324 0)
(1.00294 -0.00114797 0)
(1.00303 -0.00400386 0)
(1.00324 -0.0063045 0)
(1.00345 -0.00877728 0)
(1.00365 -0.0110841 0)
(1.00379 -0.013319 0)
(1.00382 -0.015404 0)
(1.0037 -0.0172954 0)
(1.0034 -0.0189341 0)
(1.00294 -0.0202723 0)
(1.00233 -0.0212509 0)
(1.00162 -0.0218335 0)
(1.00083 -0.0220785 0)
(0.999981 -0.0221412 0)
(0.999057 -0.0221574 0)
(0.998147 -0.0220067 0)
(0.997305 -0.0214137 0)
(0.996419 -0.0204031 0)
(0.995451 -0.0192891 0)
(0.994852 -0.018333 0)
(0.995312 -0.0176822 0)
(0.996717 -0.0172948 0)
(0.997815 -0.0168866 0)
(0.997555 -0.0163418 0)
(0.996204 -0.0158015 0)
(0.994642 -0.0153331 0)
(0.993365 -0.0149199 0)
(0.992443 -0.0145441 0)
(0.991795 -0.0141964 0)
(1.00433 -0.00142643 0)
(1.00448 -0.00495165 0)
(1.00478 -0.00779537 0)
(1.00509 -0.010862 0)
(1.00541 -0.0137239 0)
(1.00563 -0.0165163 0)
(1.00571 -0.0191438 0)
(1.00557 -0.0215603 0)
(1.00518 -0.0236853 0)
(1.00452 -0.025452 0)
(1.0036 -0.0268053 0)
(1.00245 -0.0277447 0)
(1.00112 -0.0283137 0)
(0.99972 -0.0285081 0)
(0.998419 -0.0282466 0)
(0.99725 -0.0275333 0)
(0.996061 -0.0266696 0)
(0.994669 -0.0260071 0)
(0.993006 -0.0255363 0)
(0.990976 -0.0250424 0)
(0.988307 -0.0243397 0)
(0.985013 -0.0233696 0)
(0.982177 -0.0223565 0)
(0.981141 -0.0214592 0)
(0.981771 -0.0205526 0)
(0.982912 -0.0195916 0)
(0.983829 -0.0186533 0)
(0.984394 -0.0177964 0)
(0.984693 -0.0170449 0)
(1.00579 -0.00168375 0)
(1.00599 -0.00582152 0)
(1.00639 -0.00916306 0)
(1.00682 -0.0127726 0)
(1.00727 -0.016141 0)
(1.00762 -0.0194484 0)
(1.00778 -0.0225838 0)
(1.00767 -0.0255074 0)
(1.00722 -0.028131 0)
(1.00638 -0.0303876 0)
(1.00516 -0.0322202 0)
(1.0036 -0.0335872 0)
(1.00182 -0.0344264 0)
(0.999937 -0.034657 0)
(0.997974 -0.0343509 0)
(0.995908 -0.033724 0)
(0.993794 -0.0328247 0)
(0.991808 -0.0314703 0)
(0.990167 -0.0297006 0)
(0.989207 -0.0279301 0)
(0.989436 -0.0265094 0)
(0.990848 -0.0254654 0)
(0.992061 -0.0244974 0)
(0.991284 -0.0234059 0)
(0.988596 -0.0223978 0)
(0.985581 -0.0216031 0)
(0.983219 -0.020936 0)
(0.981571 -0.0203245 0)
(0.980431 -0.0197438 0)
(1.00731 -0.0019149 0)
(1.00758 -0.00659778 0)
(1.00809 -0.0103837 0)
(1.00865 -0.0144778 0)
(1.00925 -0.0182984 0)
(1.00973 -0.022072 0)
(1.01 -0.0256772 0)
(1.00994 -0.0290915 0)
(1.00947 -0.0322309 0)
(1.0085 -0.0350242 0)
(1.00704 -0.0373874 0)
(1.00514 -0.0392285 0)
(1.00288 -0.0404929 0)
(1.0003 -0.041187 0)
(0.997451 -0.0413477 0)
(0.994483 -0.0409765 0)
(0.991606 -0.0401176 0)
(0.98896 -0.0390251 0)
(0.986587 -0.0380276 0)
(0.984197 -0.0371094 0)
(0.980865 -0.0359716 0)
(0.97591 -0.0345051 0)
(0.970747 -0.0329995 0)
(0.968155 -0.0317068 0)
(0.968596 -0.030404 0)
(0.969986 -0.0289235 0)
(0.970901 -0.0274233 0)
(0.971243 -0.0260398 0)
(0.971244 -0.02482 0)
(1.0089 -0.00211762 0)
(1.00923 -0.00727423 0)
(1.00984 -0.0114489 0)
(1.01054 -0.0159684 0)
(1.01128 -0.0201876 0)
(1.01191 -0.0243791 0)
(1.01232 -0.0284166 0)
(1.01236 -0.0322993 0)
(1.01193 -0.0359505 0)
(1.01093 -0.0392951 0)
(1.00933 -0.0422401 0)
(1.00715 -0.0446942 0)
(1.00441 -0.0466017 0)
(1.00122 -0.0479176 0)
(0.997691 -0.0485489 0)
(0.993934 -0.0484746 0)
(0.990076 -0.0478093 0)
(0.986352 -0.0465489 0)
(0.983144 -0.0445616 0)
(0.980941 -0.0419803 0)
(0.980429 -0.0393329 0)
(0.982023 -0.0370927 0)
(0.984078 -0.0351572 0)
(0.983219 -0.0332124 0)
(0.978766 -0.0314907 0)
(0.973588 -0.0302519 0)
(0.969684 -0.0292876 0)
(0.96703 -0.0284056 0)
(0.965182 -0.0275605 0)
(1.01048 -0.00229277 0)
(1.01088 -0.00785514 0)
(1.0116 -0.0123662 0)
(1.01243 -0.0172561 0)
(1.01333 -0.0218243 0)
(1.01413 -0.0263871 0)
(1.0147 -0.030815 0)
(1.01489 -0.0351298 0)
(1.01458 -0.0392671 0)
(1.01364 -0.0431672 0)
(1.012 -0.0467502 0)
(1.00963 -0.0499247 0)
(1.00656 -0.052585 0)
(1.00289 -0.054641 0)
(0.998687 -0.0560425 0)
(0.994028 -0.0568037 0)
(0.989109 -0.0569803 0)
(0.984233 -0.0566731 0)
(0.979665 -0.056081 0)
(0.975341 -0.0553524 0)
(0.970264 -0.0543166 0)
(0.96313 -0.0526561 0)
(0.955215 -0.0505371 0)
(0.950865 -0.0485232 0)
(0.951618 -0.0465651 0)
(0.953856 -0.0443024 0)
(0.954871 -0.0419758 0)
(0.954842 -0.0398658 0)
(0.954362 -0.0380251 0)
(1.01202 -0.00244326 0)
(1.01249 -0.00835144 0)
(1.01331 -0.0131529 0)
(1.01428 -0.0183649 0)
(1.01534 -0.0232381 0)
(1.01631 -0.0281284 0)
(1.01707 -0.032903 0)
(1.01745 -0.0376087 0)
(1.01731 -0.0422024 0)
(1.0165 -0.0466543 0)
(1.01491 -0.050901 0)
(1.0125 -0.0548472 0)
(1.00924 -0.0583635 0)
(1.0052 -0.061342 0)
(1.00045 -0.0636945 0)
(0.995112 -0.065288 0)
(0.989374 -0.0660022 0)
(0.983441 -0.0657305 0)
(0.977708 -0.0642695 0)
(0.972871 -0.0615876 0)
(0.970086 -0.0582108 0)
(0.970591 -0.0550197 0)
(0.973099 -0.0524922 0)
(0.972455 -0.0501957 0)
(0.96608 -0.0479803 0)
(0.958196 -0.0463559 0)
(0.95258 -0.045156 0)
(0.948947 -0.0440021 0)
(0.946395 -0.0428594 0)
(1.01349 -0.00257277 0)
(1.01402 -0.00877631 0)
(1.01495 -0.0138293 0)
(1.01605 -0.0193227 0)
(1.01727 -0.0244631 0)
(1.01842 -0.029642 0)
(1.01937 -0.0347232 0)
(1.01995 -0.039779 0)
(1.02003 -0.0447911 0)
(1.01944 -0.0497631 0)
(1.01805 -0.0546538 0)
(1.01576 -0.059383 0)
(1.01252 -0.0638216 0)
(1.00832 -0.0678167 0)
(1.00323 -0.0712064 0)
(0.997316 -0.0738396 0)
(0.990621 -0.0756562 0)
(0.98329 -0.0767312 0)
(0.975744 -0.0773577 0)
(0.968425 -0.0778696 0)
(0.960831 -0.078135 0)
(0.951238 -0.0774668 0)
(0.940022 -0.075381 0)
(0.932606 -0.072613 0)
(0.932776 -0.0699469 0)
(0.935783 -0.066962 0)
(0.936668 -0.0637285 0)
(0.935912 -0.0608032 0)
(0.9347 -0.0582653 0)
(1.01489 -0.00268474 0)
(1.01548 -0.00914177 0)
(1.0165 -0.0144141 0)
(1.01773 -0.0201548 0)
(1.01911 -0.0255307 0)
(1.02043 -0.0309645 0)
(1.02157 -0.0363148 0)
(1.02239 -0.041676 0)
(1.02273 -0.047052 0)
(1.02244 -0.0524819 0)
(1.02138 -0.0579611 0)
(1.01939 -0.0634444 0)
(1.01635 -0.068817 0)
(1.01221 -0.0739009 0)
(1.00693 -0.078499 0)
(1.00054 -0.0824157 0)
(0.993098 -0.0854357 0)
(0.984835 -0.0872769 0)
(0.976338 -0.0875583 0)
(0.968523 -0.085927 0)
(0.962483 -0.082636 0)
(0.959926 -0.0788709 0)
(0.961136 -0.0760208 0)
(0.960618 -0.0740609 0)
(0.952674 -0.0719041 0)
(0.941412 -0.0699355 0)
(0.933449 -0.0685442 0)
(0.928571 -0.0671122 0)
(0.925051 -0.0655701 0)
(1.01619 -0.00278187 0)
(1.01684 -0.00945719 0)
(1.01796 -0.0149216 0)
(1.01931 -0.0208808 0)
(1.02084 -0.0264649 0)
(1.02233 -0.0321239 0)
(1.02367 -0.0377079 0)
(1.02472 -0.0433269 0)
(1.02536 -0.0490044 0)
(1.02544 -0.0548188 0)
(1.02478 -0.0608145 0)
(1.0232 -0.0669949 0)
(1.02053 -0.0732804 0)
(1.01661 -0.079501 0)
(1.01136 -0.0854188 0)
(1.00472 -0.090738 0)
(0.996715 -0.0951628 0)
(0.987435 -0.0985339 0)
(0.977282 -0.101044 0)
(0.96686 -0.103338 0)
(0.956219 -0.105754 0)
(0.944012 -0.107359 0)
(0.929358 -0.106603 0)
(0.917013 -0.103475 0)
(0.913863 -0.0999057 0)
(0.916567 -0.0963272 0)
(0.916941 -0.0921397 0)
(0.914815 -0.0881823 0)
(0.912386 -0.0847924 0)
(1.0174 -0.0028662 0)
(1.01811 -0.00972948 0)
(1.01932 -0.0153625 0)
(1.0208 -0.0215152 0)
(1.02246 -0.0272838 0)
(1.02412 -0.033142 0)
(1.02565 -0.0389279 0)
(1.02694 -0.0447612 0)
(1.02788 -0.0506823 0)
(1.02832 -0.0568084 0)
(1.02811 -0.0632363 0)
(1.02704 -0.070028 0)
(1.02489 -0.0771591 0)
(1.02145 -0.0844909 0)
(1.0165 -0.0917717 0)
(1.00989 -0.0986682 0)
(1.00154 -0.104856 0)
(0.991566 -0.110046 0)
(0.980595 -0.113782 0)
(0.969669 -0.115229 0)
(0.959859 -0.113743 0)
(0.952693 -0.11008 0)
(0.950103 -0.106516 0)
(0.948892 -0.104797 0)
(0.940385 -0.103394 0)
(0.925229 -0.101148 0)
(0.913296 -0.0993844 0)
(0.906333 -0.09766 0)
(0.901198 -0.0955009 0)
(1.01853 -0.00293933 0)
(1.01929 -0.00996399 0)
(1.02059 -0.0157449 0)
(1.02217 -0.0220693 0)
(1.02397 -0.0280017 0)
(1.02578 -0.0340369 0)
(1.0275 -0.039998 0)
(1.02901 -0.0460089 0)
(1.03023 -0.0521212 0)
(1.03105 -0.0584848 0)
(1.03133 -0.065246 0)
(1.03088 -0.0725325 0)
(1.02943 -0.0803926 0)
(1.02668 -0.0887505 0)
(1.02233 -0.0973922 0)
(1.01607 -0.105978 0)
(1.00775 -0.114099 0)
(0.99746 -0.121343 0)
(0.985573 -0.127386 0)
(0.972519 -0.13245 0)
(0.958444 -0.137433 0)
(0.94292 -0.142339 0)
(0.924765 -0.144963 0)
(0.906213 -0.143049 0)
(0.895943 -0.138445 0)
(0.895869 -0.134009 0)
(0.895498 -0.128899 0)
(0.891229 -0.123412 0)
(0.886744 -0.118763 0)
(1.01956 -0.00300264 0)
(1.02037 -0.0101652 0)
(1.02176 -0.0160757 0)
(1.02345 -0.0225523 0)
(1.02538 -0.0286302 0)
(1.02733 -0.0348239 0)
(1.02921 -0.0409382 0)
(1.03092 -0.0470947 0)
(1.03241 -0.0533497 0)
(1.03362 -0.0598769 0)
(1.03442 -0.0668669 0)
(1.03464 -0.0745179 0)
(1.034 -0.0829661 0)
(1.03213 -0.0922272 0)
(1.02862 -0.102161 0)
(1.02306 -0.112457 0)
(1.01516 -0.122693 0)
(1.00488 -0.132452 0)
(0.99246 -0.141211 0)
(0.978578 -0.14797 0)
(0.964456 -0.151155 0)
(0.951687 -0.149972 0)
(0.94284 -0.14632 0)
(0.93846 -0.144157 0)
(0.929867 -0.144064 0)
(0.911065 -0.142427 0)
(0.892482 -0.13991 0)
(0.881508 -0.137788 0)
(0.873707 -0.134735 0)
(1.02052 -0.00305729 0)
(1.02137 -0.0103369 0)
(1.02284 -0.0163605 0)
(1.02463 -0.0229722 0)
(1.02668 -0.0291793 0)
(1.02877 -0.0355155 0)
(1.03079 -0.0417641 0)
(1.03269 -0.0480392 0)
(1.03443 -0.0543946 0)
(1.036 -0.0610199 0)
(1.0373 -0.0681437 0)
(1.0382 -0.0760333 0)
(1.03842 -0.0849188 0)
(1.03755 -0.0949214 0)
(1.03511 -0.106004 0)
(1.03059 -0.117942 0)
(1.02358 -0.13035 0)
(1.01387 -0.142746 0)
(1.00151 -0.15442 0)
(0.986679 -0.164577 0)
(0.96948 -0.173558 0)
(0.949917 -0.182653 0)
(0.927628 -0.190761 0)
(0.90261 -0.193565 0)
(0.881683 -0.189547 0)
(0.87384 -0.183633 0)
(0.871673 -0.177814 0)
(0.864592 -0.170466 0)
(0.856389 -0.163752 0)
(1.02141 -0.0031043 0)
(1.0223 -0.0104826 0)
(1.02385 -0.0166046 0)
(1.02573 -0.0233359 0)
(1.02789 -0.0296578 0)
(1.0301 -0.0361225 0)
(1.03226 -0.0424897 0)
(1.03432 -0.0488615 0)
(1.03628 -0.0552846 0)
(1.03816 -0.0619561 0)
(1.03993 -0.0691333 0)
(1.04148 -0.077144 0)
(1.04258 -0.0863091 0)
(1.04281 -0.0968607 0)
(1.04164 -0.10889 0)
(1.0385 -0.122302 0)
(1.03282 -0.136795 0)
(1.02421 -0.1519 0)
(1.01236 -0.166941 0)
(0.997152 -0.180827 0)
(0.979267 -0.191812 0)
(0.960757 -0.197568 0)
(0.94428 -0.197314 0)
(0.932746 -0.194928 0)
(0.922268 -0.196034 0)
(0.901004 -0.197377 0)
(0.872997 -0.194725 0)
(0.853666 -0.191783 0)
(0.841249 -0.187865 0)
(1.02222 -0.00314458 0)
(1.02315 -0.0106055 0)
(1.02478 -0.0168128 0)
(1.02674 -0.0236495 0)
(1.02901 -0.0300736 0)
(1.03133 -0.0366548 0)
(1.03361 -0.0431273 0)
(1.03581 -0.0495796 0)
(1.03796 -0.0560464 0)
(1.04011 -0.0627238 0)
(1.0423 -0.0698867 0)
(1.04448 -0.077911 0)
(1.04646 -0.0872007 0)
(1.04785 -0.0981011 0)
(1.0481 -0.110842 0)
(1.04657 -0.125493 0)
(1.04261 -0.141888 0)
(1.03559 -0.159631 0)
(1.02492 -0.17803 0)
(1.01017 -0.19585 0)
(0.991291 -0.211901 0)
(0.968414 -0.227037 0)
(0.941633 -0.242734 0)
(0.910422 -0.255321 0)
(0.877015 -0.257359 0)
(0.854022 -0.250827 0)
(0.845472 -0.244144 0)
(0.835204 -0.235862 0)
(0.820517 -0.226049 0)
(1.02298 -0.00317893 0)
(1.02394 -0.0107084 0)
(1.02564 -0.0169897 0)
(1.02768 -0.0239189 0)
(1.03005 -0.030434 0)
(1.03247 -0.0371212 0)
(1.03486 -0.0436877 0)
(1.03718 -0.0502083 0)
(1.03949 -0.0567013 0)
(1.04188 -0.0633533 0)
(1.04445 -0.0704466 0)
(1.04722 -0.0783935 0)
(1.05004 -0.0876711 0)
(1.05258 -0.0987335 0)
(1.05429 -0.111948 0)
(1.05454 -0.127557 0)
(1.0526 -0.145573 0)
(1.04765 -0.165712 0)
(1.03881 -0.187366 0)
(1.02521 -0.209492 0)
(1.0065 -0.230452 0)
(0.98384 -0.247672 0)
(0.960186 -0.257578 0)
(0.938818 -0.259619 0)
(0.921632 -0.261595 0)
(0.898467 -0.268433 0)
(0.860632 -0.270138 0)
(0.825382 -0.266254 0)
(0.803625 -0.261954 0)
(1.02366 -0.0032081 0)
(1.02466 -0.0107941 0)
(1.02643 -0.0171393 0)
(1.02854 -0.0241494 0)
(1.03101 -0.0307455 0)
(1.03352 -0.0375294 0)
(1.036 -0.0441799 0)
(1.03843 -0.0507593 0)
(1.04088 -0.0572657 0)
(1.04348 -0.0638695 0)
(1.04638 -0.0708527 0)
(1.04967 -0.0786529 0)
(1.05327 -0.0878066 0)
(1.05691 -0.0988658 0)
(1.06007 -0.112323 0)
(1.06217 -0.128587 0)
(1.06246 -0.147872 0)
(1.05999 -0.170058 0)
(1.05352 -0.194691 0)
(1.04194 -0.220887 0)
(1.02452 -0.247027 0)
(1.00108 -0.271915 0)
(0.971466 -0.297222 0)
(0.935027 -0.323625 0)
(0.89084 -0.342198 0)
(0.846603 -0.342689 0)
(0.820247 -0.33472 0)
(0.804629 -0.327495 0)
(0.781068 -0.315178 0)
(1.02429 -0.00323278 0)
(1.02532 -0.0108651 0)
(1.02714 -0.0172656 0)
(1.02932 -0.0243459 0)
(1.03189 -0.0310142 0)
(1.03447 -0.0378861 0)
(1.03704 -0.0446118 0)
(1.03957 -0.0512429 0)
(1.04213 -0.0577541 0)
(1.0449 -0.064295 0)
(1.04808 -0.0711415 0)
(1.05182 -0.078746 0)
(1.05613 -0.0876884 0)
(1.06079 -0.0986038 0)
(1.06537 -0.112095 0)
(1.06933 -0.128721 0)
(1.07197 -0.148901 0)
(1.07221 -0.172721 0)
(1.06861 -0.199905 0)
(1.05978 -0.229857 0)
(1.04464 -0.261392 0)
(1.02272 -0.29247 0)
(0.995451 -0.319307 0)
(0.965597 -0.335957 0)
(0.936298 -0.342874 0)
(0.907897 -0.354962 0)
(0.864437 -0.370176 0)
(0.806523 -0.370585 0)
(0.763315 -0.365677 0)
(1.02485 -0.00325361 0)
(1.02591 -0.0109236 0)
(1.02779 -0.0173719 0)
(1.03003 -0.0245132 0)
(1.03268 -0.0312456 0)
(1.03534 -0.0381973 0)
(1.03799 -0.0449904 0)
(1.04059 -0.0516681 0)
(1.04325 -0.0581786 0)
(1.04616 -0.0646491 0)
(1.04957 -0.071343 0)
(1.05371 -0.0787183 0)
(1.05864 -0.0873839 0)
(1.06426 -0.0980417 0)
(1.07019 -0.111394 0)
(1.07594 -0.128121 0)
(1.08092 -0.148831 0)
(1.08402 -0.173836 0)
(1.08363 -0.203063 0)
(1.07814 -0.236208 0)
(1.06637 -0.272473 0)
(1.04727 -0.310094 0)
(1.01968 -0.348248 0)
(0.982112 -0.390128 0)
(0.932193 -0.434576 0)
(0.868853 -0.461475 0)
(0.809382 -0.45963 0)
(0.774774 -0.453014 0)
(0.742409 -0.443833 0)
(1.02536 -0.00327115 0)
(1.02644 -0.0109717 0)
(1.02838 -0.0174612 0)
(1.03067 -0.0246552 0)
(1.0334 -0.0314447 0)
(1.03612 -0.0384685 0)
(1.03885 -0.0453223 0)
(1.04151 -0.0520424 0)
(1.04424 -0.0585492 0)
(1.04726 -0.0649462 0)
(1.05088 -0.0714795 0)
(1.05535 -0.0786049 0)
(1.06085 -0.0869495 0)
(1.06732 -0.0972657 0)
(1.0745 -0.110341 0)
(1.08196 -0.126958 0)
(1.08918 -0.147871 0)
(1.09514 -0.173616 0)
(1.09816 -0.204355 0)
(1.09644 -0.240036 0)
(1.08874 -0.280393 0)
(1.07378 -0.324533 0)
(1.0501 -0.370144 0)
(1.01841 -0.411572 0)
(0.980703 -0.439025 0)
(0.940032 -0.456451 0)
(0.892462 -0.489509 0)
(0.816224 -0.515617 0)
(0.730396 -0.511643 0)
(1.02581 -0.00328591 0)
(1.02692 -0.011011 0)
(1.02891 -0.0175361 0)
(1.03124 -0.0247757 0)
(1.03405 -0.0316158 0)
(1.03682 -0.0387045 0)
(1.03962 -0.0456131 0)
(1.04234 -0.0523722 0)
(1.04513 -0.0588737 0)
(1.04824 -0.0651973 0)
(1.05201 -0.0715684 0)
(1.05677 -0.0784346 0)
(1.06276 -0.0864328 0)
(1.06999 -0.0963513 0)
(1.0783 -0.109047 0)
(1.08735 -0.125386 0)
(1.09668 -0.146232 0)
(1.1054 -0.172307 0)
(1.11186 -0.204027 0)
(1.11419 -0.241596 0)
(1.11103 -0.285103 0)
(1.10142 -0.334326 0)
(1.08315 -0.387829 0)
(1.0519 -0.445195 0)
(1.00508 -0.513479 0)
(0.938869 -0.590604 0)
(0.846032 -0.632925 0)
(0.757352 -0.628435 0)
(0.701775 -0.625464 0)
(1.02621 -0.0032983 0)
(1.02735 -0.0110432 0)
(1.02938 -0.017599 0)
(1.03176 -0.0248778 0)
(1.03463 -0.0317629 0)
(1.03746 -0.0389098 0)
(1.04031 -0.0458677 0)
(1.04307 -0.0526628 0)
(1.04592 -0.0591583 0)
(1.0491 -0.0654112 0)
(1.053 -0.0716237 0)
(1.058 -0.0782309 0)
(1.06439 -0.0858731 0)
(1.07228 -0.0953621 0)
(1.0816 -0.107606 0)
(1.0921 -0.123542 0)
(1.10339 -0.144115 0)
(1.11469 -0.170184 0)
(1.12447 -0.202387 0)
(1.13096 -0.241214 0)
(1.13267 -0.286996 0)
(1.12871 -0.340128 0)
(1.11738 -0.401034 0)
(1.09442 -0.467566 0)
(1.05874 -0.530878 0)
(1.01244 -0.575752 0)
(0.9571 -0.617831 0)
(0.874586 -0.697227 0)
(0.734297 -0.732565 0)
(1.02658 -0.00330866 0)
(1.02774 -0.0110696 0)
(1.0298 -0.0176515 0)
(1.03222 -0.0249642 0)
(1.03515 -0.0318891 0)
(1.03802 -0.039088 0)
(1.04093 -0.0460905 0)
(1.04373 -0.0529186 0)
(1.04661 -0.0594082 0)
(1.04985 -0.0655948 0)
(1.05384 -0.0716561 0)
(1.05903 -0.0780119 0)
(1.06577 -0.0853001 0)
(1.07424 -0.0943467 0)
(1.08444 -0.106096 0)
(1.09623 -0.12154 0)
(1.10932 -0.141688 0)
(1.123 -0.167496 0)
(1.13588 -0.199753 0)
(1.14639 -0.239226 0)
(1.15317 -0.286553 0)
(1.15507 -0.342283 0)
(1.15148 -0.407769 0)
(1.13853 -0.483192 0)
(1.10562 -0.567459 0)
(1.05078 -0.677298 0)
(0.974171 -0.82298 0)
(0.828081 -0.908017 0)
(0.648248 -0.894949 0)
(1.0269 -0.00331733 0)
(1.02808 -0.011091 0)
(1.03017 -0.0176955 0)
(1.03264 -0.0250373 0)
(1.03562 -0.0319974 0)
(1.03853 -0.0392425 0)
(1.04148 -0.0462852 0)
(1.04431 -0.0531435 0)
(1.04722 -0.0596279 0)
(1.0505 -0.0657536 0)
(1.05457 -0.0716735 0)
(1.05991 -0.0777905 0)
(1.06694 -0.0847354 0)
(1.0759 -0.0933421 0)
(1.08686 -0.104579 0)
(1.09979 -0.119479 0)
(1.11449 -0.139096 0)
(1.13035 -0.164464 0)
(1.14605 -0.196466 0)
(1.16025 -0.236037 0)
(1.17204 -0.284202 0)
(1.1801 -0.341604 0)
(1.1836 -0.409706 0)
(1.18132 -0.492474 0)
(1.16606 -0.589759 0)
(1.1334 -0.685205 0)
(1.08235 -0.759429 0)
(1.00913 -0.872251 0)
(0.835064 -1.06387 0)
(1.02718 -0.00332454 0)
(1.02838 -0.0111086 0)
(1.0305 -0.0177322 0)
(1.033 -0.0250991 0)
(1.03603 -0.0320901 0)
(1.03898 -0.0393762 0)
(1.04197 -0.046455 0)
(1.04483 -0.053341 0)
(1.04776 -0.0598211 0)
(1.05106 -0.0658916 0)
(1.05519 -0.0716813 0)
(1.06065 -0.077575 0)
(1.06792 -0.0841939 0)
(1.07729 -0.0923744 0)
(1.08892 -0.103101 0)
(1.10285 -0.117432 0)
(1.11895 -0.136455 0)
(1.13674 -0.161254 0)
(1.15502 -0.192791 0)
(1.17251 -0.232046 0)
(1.18888 -0.280336 0)
(1.20316 -0.33869 0)
(1.21366 -0.408076 0)
(1.22177 -0.493127 0)
(1.22499 -0.597752 0)
(1.20154 -0.713394 0)
(1.14867 -0.879164 0)
(1.08798 -1.19732 0)
(0.785337 -1.37144 0)
(0.999047 -0.00191609 0)
(0.99922 -0.00184372 0)
(0.999328 -0.00177015 0)
(0.999377 -0.00169482 0)
(0.999366 -0.00161693 0)
(0.999287 -0.00153509 0)
(0.999126 -0.00144752 0)
(0.99886 -0.00135216 0)
(0.99846 -0.00124679 0)
(0.99789 -0.00112924 0)
(0.997111 -0.00099782 0)
(0.996089 -0.000851854 0)
(0.994795 -0.000692212 0)
(0.993222 -0.000521835 0)
(0.991386 -0.000346036 0)
(0.98934 -0.000172443 0)
(0.987173 -1.04429e-05 0)
(0.985015 0.000129886 0)
(0.983023 0.000239259 0)
(0.998798 -0.00649325 0)
(0.998603 -0.00637527 0)
(0.998454 -0.0062527 0)
(0.998336 -0.00612651 0)
(0.998242 -0.00599653 0)
(0.99817 -0.00586327 0)
(0.998124 -0.00572791 0)
(0.998121 -0.00559235 0)
(0.998189 -0.00545931 0)
(0.998371 -0.00533224 0)
(0.998725 -0.00521506 0)
(0.999319 -0.00511156 0)
(1.00023 -0.00502464 0)
(1.00152 -0.0049552 0)
(1.00323 -0.00490127 0)
(1.00537 -0.00485723 0)
(1.00787 -0.00481382 0)
(1.01062 -0.00475895 0)
(1.01341 -0.00467949 0)
(0.994336 -0.00846417 0)
(0.99439 -0.00812694 0)
(0.994377 -0.00778177 0)
(0.994308 -0.00742912 0)
(0.99419 -0.00707056 0)
(0.99403 -0.00670728 0)
(0.99383 -0.00634068 0)
(0.993588 -0.0059724 0)
(0.993295 -0.00560421 0)
(0.992937 -0.00523786 0)
(0.992487 -0.00487499 0)
(0.991907 -0.00451715 0)
(0.991146 -0.00416589 0)
(0.99015 -0.00382307 0)
(0.988865 -0.0034912 0)
(0.98726 -0.00317374 0)
(0.985342 -0.002875 0)
(0.983176 -0.0025996 0)
(0.980895 -0.00235119 0)
(0.991329 -0.0138764 0)
(0.990959 -0.0135707 0)
(0.99064 -0.0132658 0)
(0.990364 -0.0129625 0)
(0.990127 -0.01266 0)
(0.989933 -0.0123575 0)
(0.989795 -0.0120545 0)
(0.98973 -0.0117503 0)
(0.989769 -0.011444 0)
(0.989949 -0.011134 0)
(0.990321 -0.0108185 0)
(0.990944 -0.0104945 0)
(0.991881 -0.010158 0)
(0.993194 -0.00980321 0)
(0.994929 -0.00942241 0)
(0.997097 -0.00900612 0)
(0.999648 -0.00854369 0)
(1.00246 -0.00802482 0)
(1.00533 -0.00744189 0)
(0.984826 -0.016392 0)
(0.984866 -0.0157754 0)
(0.984837 -0.0151444 0)
(0.984753 -0.0145002 0)
(0.984623 -0.0138446 0)
(0.984454 -0.0131784 0)
(0.984246 -0.0125015 0)
(0.983995 -0.0118135 0)
(0.983689 -0.0111141 0)
(0.983307 -0.0104024 0)
(0.98281 -0.00967784 0)
(0.982146 -0.00894054 0)
(0.981245 -0.00819164 0)
(0.980027 -0.00743419 0)
(0.978412 -0.00667372 0)
(0.976344 -0.00591852 0)
(0.973819 -0.00517921 0)
(0.970918 -0.00446725 0)
(0.967824 -0.00379244 0)
(0.979611 -0.0191937 0)
(0.978951 -0.0186538 0)
(0.978367 -0.0180998 0)
(0.977838 -0.0175334 0)
(0.977349 -0.0169533 0)
(0.976895 -0.0163588 0)
(0.97648 -0.01575 0)
(0.976115 -0.0151267 0)
(0.975822 -0.0144892 0)
(0.975635 -0.0138376 0)
(0.975604 -0.0131719 0)
(0.975794 -0.0124917 0)
(0.976284 -0.0117961 0)
(0.977162 -0.0110824 0)
(0.978509 -0.0103465 0)
(0.980374 -0.00958207 0)
(0.982743 -0.00878135 0)
(0.985505 -0.00793687 0)
(0.988439 -0.00704407 0)
(0.97108 -0.0237567 0)
(0.970831 -0.0227504 0)
(0.970516 -0.0217192 0)
(0.970156 -0.0206661 0)
(0.969765 -0.0195963 0)
(0.969353 -0.0185137 0)
(0.968922 -0.0174221 0)
(0.968472 -0.0163251 0)
(0.967993 -0.0152265 0)
(0.967465 -0.0141296 0)
(0.966853 -0.0130374 0)
(0.966102 -0.0119529 0)
(0.965135 -0.0108787 0)
(0.96386 -0.0098183 0)
(0.962177 -0.00877572 0)
(0.960011 -0.00775615 0)
(0.957347 -0.00676514 0)
(0.954271 -0.0058069 0)
(0.951003 -0.00488149 0)
(0.963827 -0.0267503 0)
(0.962717 -0.0259484 0)
(0.961726 -0.0251199 0)
(0.960829 -0.0242679 0)
(0.960014 -0.0233913 0)
(0.959276 -0.0224905 0)
(0.958617 -0.0215663 0)
(0.958048 -0.0206198 0)
(0.957584 -0.0196517 0)
(0.957251 -0.0186627 0)
(0.957087 -0.0176529 0)
(0.957145 -0.0166214 0)
(0.957496 -0.0155663 0)
(0.958223 -0.0144836 0)
(0.959405 -0.0133673 0)
(0.961094 -0.0122092 0)
(0.963269 -0.0109997 0)
(0.965802 -0.00973056 0)
(0.968431 -0.00839856 0)
(0.95373 -0.0364327 0)
(0.953036 -0.0349346 0)
(0.952289 -0.0334065 0)
(0.951523 -0.0318507 0)
(0.950761 -0.0302725 0)
(0.950018 -0.0286752 0)
(0.949301 -0.0270617 0)
(0.94861 -0.025435 0)
(0.947934 -0.0237976 0)
(0.947252 -0.0221519 0)
(0.946523 -0.0205003 0)
(0.945684 -0.0188451 0)
(0.94465 -0.017189 0)
(0.943313 -0.0155363 0)
(0.941557 -0.0138927 0)
(0.939291 -0.0122667 0)
(0.936494 -0.0106679 0)
(0.933273 -0.00910493 0)
(0.929894 -0.00758061 0)
(0.944487 -0.041745 0)
(0.942892 -0.0406276 0)
(0.941441 -0.0394601 0)
(0.940108 -0.0382463 0)
(0.93888 -0.0369842 0)
(0.937753 -0.0356733 0)
(0.936727 -0.034314 0)
(0.935808 -0.0329066 0)
(0.935005 -0.0314515 0)
(0.934336 -0.0299492 0)
(0.933832 -0.0283997 0)
(0.933538 -0.026803 0)
(0.933519 -0.025158 0)
(0.933861 -0.0234621 0)
(0.93465 -0.0217101 0)
(0.935948 -0.0198929 0)
(0.937738 -0.0179983 0)
(0.939871 -0.0160131 0)
(0.942037 -0.0139296 0)
(0.933396 -0.0560638 0)
(0.932069 -0.0539907 0)
(0.930694 -0.0518721 0)
(0.929313 -0.0497096 0)
(0.927953 -0.0475066 0)
(0.926631 -0.0452632 0)
(0.925357 -0.0429788 0)
(0.924131 -0.0406527 0)
(0.922948 -0.0382845 0)
(0.921788 -0.0358738 0)
(0.920618 -0.0334213 0)
(0.91938 -0.0309285 0)
(0.917991 -0.0283986 0)
(0.916341 -0.0258378 0)
(0.914302 -0.0232566 0)
(0.911759 -0.0206715 0)
(0.908674 -0.0181055 0)
(0.905152 -0.0155849 0)
(0.901509 -0.0131315 0)
(0.922357 -0.0640264 0)
(0.920058 -0.0624379 0)
(0.917917 -0.0607421 0)
(0.915902 -0.0589474 0)
(0.913996 -0.0570557 0)
(0.912191 -0.0550718 0)
(0.910487 -0.0530017 0)
(0.908888 -0.0508518 0)
(0.907402 -0.0486284 0)
(0.906047 -0.0463379 0)
(0.90485 -0.0439862 0)
(0.903856 -0.0415785 0)
(0.903136 -0.0391188 0)
(0.902785 -0.0366083 0)
(0.902915 -0.0340433 0)
(0.903625 -0.031412 0)
(0.904935 -0.0286913 0)
(0.906708 -0.0258485 0)
(0.908577 -0.0228507 0)
(0.910009 -0.0818139 0)
(0.907675 -0.0789975 0)
(0.905315 -0.0761091 0)
(0.902977 -0.0731512 0)
(0.900692 -0.0701263 0)
(0.898482 -0.0670316 0)
(0.896359 -0.0638633 0)
(0.894329 -0.0606181 0)
(0.89239 -0.057293 0)
(0.890531 -0.0538863 0)
(0.888728 -0.0503976 0)
(0.886934 -0.0468283 0)
(0.885075 -0.0431822 0)
(0.883037 -0.0394673 0)
(0.880671 -0.0356986 0)
(0.877812 -0.0319027 0)
(0.874348 -0.0281233 0)
(0.870331 -0.0244211 0)
(0.866101 -0.0208624 0)
(0.89717 -0.0932683 0)
(0.893717 -0.0909046 0)
(0.890467 -0.0883137 0)
(0.887383 -0.0855263 0)
(0.884448 -0.0825573 0)
(0.881653 -0.0794296 0)
(0.878999 -0.0761674 0)
(0.876491 -0.0727949 0)
(0.874138 -0.0693359 0)
(0.871956 -0.0658136 0)
(0.869971 -0.06225 0)
(0.868224 -0.0586653 0)
(0.866785 -0.0550776 0)
(0.865755 -0.0515007 0)
(0.865279 -0.0479402 0)
(0.865518 -0.0443866 0)
(0.866593 -0.0408048 0)
(0.868447 -0.0371258 0)
(0.870691 -0.033254 0)
(0.882672 -0.114636 0)
(0.878739 -0.110675 0)
(0.874864 -0.106597 0)
(0.871105 -0.102389 0)
(0.867502 -0.0980611 0)
(0.86409 -0.0936093 0)
(0.860886 -0.0890323 0)
(0.857902 -0.0843328 0)
(0.855144 -0.0795138 0)
(0.852605 -0.0745809 0)
(0.850268 -0.0695406 0)
(0.848096 -0.0644004 0)
(0.846023 -0.0591689 0)
(0.84393 -0.0538573 0)
(0.841638 -0.0484836 0)
(0.838897 -0.0430806 0)
(0.835437 -0.0377125 0)
(0.831112 -0.032489 0)
(0.826159 -0.0275663 0)
(0.867324 -0.131293 0)
(0.86192 -0.127597 0)
(0.856833 -0.123409 0)
(0.852039 -0.11884 0)
(0.847548 -0.113933 0)
(0.843349 -0.108745 0)
(0.839462 -0.103338 0)
(0.835896 -0.0977689 0)
(0.832666 -0.0920965 0)
(0.829786 -0.0863787 0)
(0.827272 -0.0806737 0)
(0.825151 -0.0750394 0)
(0.823471 -0.0695327 0)
(0.822318 -0.0642072 0)
(0.821841 -0.0591073 0)
(0.822265 -0.0542593 0)
(0.823864 -0.0496451 0)
(0.826815 -0.045176 0)
(0.830889 -0.0406578 0)
(0.849499 -0.157909 0)
(0.842873 -0.152038 0)
(0.836485 -0.145917 0)
(0.830454 -0.139477 0)
(0.824809 -0.132735 0)
(0.819642 -0.125718 0)
(0.814976 -0.118445 0)
(0.810844 -0.110959 0)
(0.807263 -0.103303 0)
(0.80424 -0.0955238 0)
(0.801763 -0.0876655 0)
(0.799802 -0.0797683 0)
(0.798294 -0.0718653 0)
(0.79712 -0.0639827 0)
(0.796072 -0.0561436 0)
(0.794811 -0.0483732 0)
(0.792837 -0.0407391 0)
(0.789596 -0.0333782 0)
(0.784786 -0.0265585 0)
(0.830591 -0.182421 0)
(0.821591 -0.176486 0)
(0.813222 -0.169532 0)
(0.805382 -0.161779 0)
(0.798233 -0.15338 0)
(0.791765 -0.144417 0)
(0.786054 -0.135036 0)
(0.781135 -0.12535 0)
(0.777042 -0.115485 0)
(0.773787 -0.105568 0)
(0.771376 -0.0957366 0)
(0.769803 -0.086129 0)
(0.76907 -0.0768921 0)
(0.7692 -0.0681772 0)
(0.770281 -0.0601307 0)
(0.772519 -0.0528985 0)
(0.776317 -0.0465572 0)
(0.782179 -0.0411077 0)
(0.790542 -0.0363462 0)
(0.808349 -0.217702 0)
(0.796984 -0.208894 0)
(0.785961 -0.19926 0)
(0.775858 -0.188878 0)
(0.766593 -0.177639 0)
(0.758402 -0.165725 0)
(0.751351 -0.153215 0)
(0.745527 -0.140258 0)
(0.740969 -0.127016 0)
(0.73772 -0.113646 0)
(0.735772 -0.100306 0)
(0.7351 -0.0871414 0)
(0.735632 -0.0742744 0)
(0.737239 -0.0617973 0)
(0.739688 -0.0497784 0)
(0.742582 -0.0382175 0)
(0.745181 -0.0271823 0)
(0.746533 -0.0167565 0)
(0.745044 -0.00716947 0)
(0.785668 -0.254167 0)
(0.769666 -0.244576 0)
(0.755246 -0.233287 0)
(0.7417 -0.220113 0)
(0.72963 -0.205667 0)
(0.719065 -0.190025 0)
(0.710185 -0.17347 0)
(0.703081 -0.156269 0)
(0.697858 -0.138663 0)
(0.694521 -0.120934 0)
(0.693089 -0.10336 0)
(0.693518 -0.0862319 0)
(0.695742 -0.0698578 0)
(0.699679 -0.0545715 0)
(0.705279 -0.0407008 0)
(0.712563 -0.0286912 0)
(0.722009 -0.0188037 0)
(0.734031 -0.0113544 0)
(0.750369 -0.00659552 0)
(0.758295 -0.302761 0)
(0.738624 -0.290189 0)
(0.719001 -0.274807 0)
(0.701349 -0.257836 0)
(0.685505 -0.238837 0)
(0.671857 -0.218238 0)
(0.660595 -0.196402 0)
(0.651922 -0.173603 0)
(0.645864 -0.150252 0)
(0.642541 -0.1267 0)
(0.641926 -0.103309 0)
(0.644003 -0.0804384 0)
(0.648687 -0.0584267 0)
(0.655837 -0.0375549 0)
(0.665179 -0.0181182 0)
(0.676381 -6.7237e-05 0)
(0.688163 0.0163614 0)
(0.699911 0.0312423 0)
(0.708164 0.0448844 0)
(0.733298 -0.357199 0)
(0.704402 -0.34192 0)
(0.678791 -0.323934 0)
(0.655231 -0.302116 0)
(0.634445 -0.2775 0)
(0.616836 -0.25078 0)
(0.602665 -0.222185 0)
(0.591934 -0.192438 0)
(0.584922 -0.161934 0)
(0.581527 -0.131167 0)
(0.581833 -0.100619 0)
(0.585783 -0.0707602 0)
(0.593314 -0.0421016 0)
(0.604292 -0.0152608 0)
(0.618616 0.00926093 0)
(0.635775 0.0302731 0)
(0.656965 0.0473626 0)
(0.680952 0.059282 0)
(0.711392 0.064115 0)
(0.700916 -0.424905 0)
(0.665473 -0.406717 0)
(0.631552 -0.382705 0)
(0.600724 -0.354205 0)
(0.574238 -0.322628 0)
(0.55219 -0.287713 0)