/*--------------------------------*- C++ -*----------------------------------*\
  =========                 |
  \\      /  F ield         | OpenFOAM: The Open Source CFD Toolbox
   \\    /   O peration     | Website:  https://openfoam.org
    \\  /    A nd           | Version:  10
     \\/     M anipulation  |
\*---------------------------------------------------------------------------*/
FoamFile
{
    format      ascii;
    class       volVectorField;
    location    "0";
    object      U;
}
// * * * * * * * * * * * * * * * * * * * * * * * * * * * * * * * * * * * * * //

dimensions      [0 1 -1 0 0 0 0];

internalField   nonuniform List<vector> 
18483
(
(0.999998 -0.000168674 0)
(0.999997 -0.000599929 0)
(0.999996 -0.000950979 0)
(0.999995 -0.00132415 0)
(0.999993 -0.00167053 0)
(0.999991 -0.00199503 0)
(0.999988 -0.00228159 0)
(0.999985 -0.00251992 0)
(0.999984 -0.00270175 0)
(0.999986 -0.00282344 0)
(0.999994 -0.00288854 0)
(1.00001 -0.00291023 0)
(1.00005 -0.00290739 0)
(1.00011 -0.00291897 0)
(1.0002 -0.00298355 0)
(1.00032 -0.00311903 0)
(1.00041 -0.00328139 0)
(1.00017 -0.00338424 0)
(0.998732 -0.00339919 0)
(0.994886 -0.00339101 0)
(0.988993 -0.00353337 0)
(0.984332 -0.00390328 0)
(0.983911 -0.00427026 0)
(0.986917 -0.00439911 0)
(0.990715 -0.00431126 0)
(0.993812 -0.00412655 0)
(0.995956 -0.00392441 0)
(0.997349 -0.00374131 0)
(0.998234 -0.00358806 0)
(1.00052 -0.000496802 0)
(1.00054 -0.00176205 0)
(1.00059 -0.00280344 0)
(1.00063 -0.0039266 0)
(1.00066 -0.00498607 0)
(1.00067 -0.00600239 0)
(1.00066 -0.00692514 0)
(1.0006 -0.00772122 0)
(1.0005 -0.00835884 0)
(1.00037 -0.00881898 0)
(1.0002 -0.00909365 0)
(1.00001 -0.00919202 0)
(0.999831 -0.00911901 0)
(0.999659 -0.00881071 0)
(0.999478 -0.00818699 0)
(0.999222 -0.00719888 0)
(0.998868 -0.005925 0)
(0.99877 -0.00458037 0)
(1.00022 -0.00334334 0)
(1.00512 -0.00233894 0)
(1.01308 -0.00147678 0)
(1.01912 -0.000598466 0)
(1.0187 9.53468e-05 0)
(1.01344 0.000390461 0)
(1.00765 0.000416155 0)
(1.00342 0.000372615 0)
(1.00079 0.000360535 0)
(0.999253 0.000402701 0)
(0.998374 0.000487676 0)
(1.00152 -0.000787577 0)
(1.00159 -0.0027806 0)
(1.00173 -0.00443606 0)
(1.00187 -0.00624444 0)
(1.00199 -0.00796979 0)
(1.00206 -0.00965774 0)
(1.00204 -0.0112258 0)
(1.00191 -0.0126254 0)
(1.00166 -0.0138039 0)
(1.0013 -0.0147296 0)
(1.00084 -0.0153894 0)
(1.00031 -0.0157879 0)
(0.999752 -0.0159585 0)
(0.999196 -0.0159898 0)
(0.998604 -0.0160661 0)
(0.997945 -0.0164305 0)
(0.997205 -0.0171556 0)
(0.996131 -0.0180313 0)
(0.9937 -0.0187124 0)
(0.988408 -0.0188214 0)
(0.980872 -0.0181599 0)
(0.975769 -0.0169959 0)
(0.977074 -0.0157154 0)
(0.982507 -0.0144199 0)
(0.987606 -0.013196 0)
(0.990799 -0.0121682 0)
(0.992482 -0.0113513 0)
(0.993285 -0.0107107 0)
(0.993623 -0.0102079 0)
(1.00272 -0.00105146 0)
(1.00286 -0.00369747 0)
(1.00313 -0.0059119 0)
(1.0034 -0.00835495 0)
(1.00366 -0.0107083 0)
(1.00382 -0.0130487 0)
(1.00384 -0.0152638 0)
(1.00367 -0.0172907 0)
(1.0033 -0.0190471 0)
(1.00273 -0.0204728 0)
(1.002 -0.0215263 0)
(1.00117 -0.022183 0)
(1.00028 -0.0224516 0)
(0.999405 -0.0223764 0)
(0.998576 -0.0219545 0)
(0.99784 -0.0209767 0)
(0.997228 -0.0192724 0)
(0.996866 -0.0170478 0)
(0.997433 -0.0147719 0)
(1.00033 -0.0129948 0)
(1.00568 -0.0121703 0)
(1.00965 -0.0121493 0)
(1.00807 -0.0122892 0)
(1.00241 -0.0123385 0)
(0.997024 -0.0123285 0)
(0.993591 -0.0122103 0)
(0.991684 -0.0119954 0)
(0.990652 -0.0117261 0)
(0.990083 -0.011433 0)
(1.00399 -0.0012875 0)
(1.00422 -0.00451657 0)
(1.00461 -0.00724065 0)
(1.00505 -0.0102735 0)
(1.00548 -0.0132274 0)
(1.00578 -0.0162108 0)
(1.00588 -0.0190846 0)
(1.00572 -0.021772 0)
(1.00524 -0.0241607 0)
(1.00445 -0.026163 0)
(1.00337 -0.0277146 0)
(1.00204 -0.028787 0)
(1.00052 -0.0294005 0)
(0.998871 -0.0296257 0)
(0.99714 -0.0295912 0)
(0.995337 -0.0295336 0)
(0.993382 -0.0297464 0)
(0.991134 -0.0302897 0)
(0.988183 -0.0308078 0)
(0.983764 -0.0307133 0)
(0.977977 -0.0295895 0)
(0.97361 -0.0275856 0)
(0.97398 -0.0254913 0)
(0.977907 -0.0237728 0)
(0.981551 -0.0222619 0)
(0.98351 -0.0209474 0)
(0.984324 -0.0198482 0)
(0.984578 -0.0189276 0)
(0.984582 -0.0181608 0)
(1.0053 -0.00148479 0)
(1.00563 -0.00520339 0)
(1.00618 -0.00837118 0)
(1.00682 -0.011935 0)
(1.00745 -0.0154548 0)
(1.00795 -0.0190704 0)
(1.00819 -0.0226243 0)
(1.00808 -0.0260335 0)
(1.00754 -0.029163 0)
(1.00655 -0.0319024 0)
(1.00513 -0.0341624 0)
(1.00335 -0.0358937 0)
(1.00133 -0.0370841 0)
(0.999198 -0.0377247 0)
(0.997109 -0.0378108 0)
(0.995171 -0.0372775 0)
(0.993436 -0.0359997 0)
(0.991884 -0.0339823 0)
(0.990659 -0.0315687 0)
(0.990573 -0.0293521 0)
(0.992614 -0.0277994 0)
(0.995301 -0.027056 0)
(0.994786 -0.0266082 0)
(0.990459 -0.0259341 0)
(0.985717 -0.0252798 0)
(0.982578 -0.0247245 0)
(0.980748 -0.0241704 0)
(0.979643 -0.0236235 0)
(0.978931 -0.0230886 0)
(1.00664 -0.00163557 0)
(1.00708 -0.00573113 0)
(1.00781 -0.00926029 0)
(1.00869 -0.0132784 0)
(1.00958 -0.0173116 0)
(1.01034 -0.0215321 0)
(1.0108 -0.0257727 0)
(1.01083 -0.0299481 0)
(1.01034 -0.0338986 0)
(1.00927 -0.03748 0)
(1.00765 -0.0405527 0)
(1.00555 -0.0430015 0)
(1.00309 -0.0447438 0)
(1.00041 -0.0457271 0)
(0.997584 -0.0459892 0)
(0.994622 -0.0457371 0)
(0.991506 -0.0453933 0)
(0.988194 -0.0453017 0)
(0.984536 -0.0454234 0)
(0.980005 -0.0453985 0)
(0.974125 -0.0447855 0)
(0.968198 -0.0433232 0)
(0.965532 -0.0413044 0)
(0.96709 -0.0393755 0)
(0.969739 -0.0374796 0)
(0.971182 -0.0355444 0)
(0.971613 -0.0337861 0)
(0.971589 -0.0322472 0)
(0.971383 -0.0309277 0)
(1.00798 -0.00174085 0)
(1.00854 -0.00610173 0)
(1.00947 -0.0099062 0)
(1.01061 -0.0142926 0)
(1.01182 -0.0187697 0)
(1.0129 -0.0235427 0)
(1.01366 -0.028442 0)
(1.01394 -0.0333829 0)
(1.0136 -0.0381879 0)
(1.01254 -0.0426871 0)
(1.01075 -0.0467053 0)
(1.00824 -0.0500913 0)
(1.00512 -0.0527474 0)
(1.00152 -0.0546495 0)
(0.997566 -0.055839 0)
(0.993467 -0.0562974 0)
(0.989493 -0.0558614 0)
(0.98591 -0.0542779 0)
(0.982936 -0.0516494 0)
(0.981178 -0.0486493 0)
(0.981624 -0.046001 0)
(0.983645 -0.0442076 0)
(0.983544 -0.043164 0)
(0.979018 -0.0421089 0)
(0.972945 -0.0410348 0)
(0.96854 -0.040189 0)
(0.965864 -0.0393623 0)
(0.964132 -0.0385095 0)
(0.962925 -0.037655 0)
(1.00926 -0.00180825 0)
(1.00996 -0.00633969 0)
(1.0111 -0.0103412 0)
(1.01253 -0.0150114 0)
(1.01408 -0.0198535 0)
(1.01553 -0.0251067 0)
(1.01667 -0.0306063 0)
(1.01728 -0.0362785 0)
(1.01718 -0.0419436 0)
(1.01622 -0.0474231 0)
(1.01434 -0.0525168 0)
(1.01155 -0.0570338 0)
(1.00797 -0.0608099 0)
(1.00379 -0.0637065 0)
(0.999242 -0.0656124 0)
(0.994512 -0.0664495 0)
(0.989682 -0.0664299 0)
(0.984753 -0.0662363 0)
(0.979714 -0.0664229 0)
(0.9743 -0.0667131 0)
(0.967745 -0.0663998 0)
(0.960149 -0.0649347 0)
(0.954341 -0.0624151 0)
(0.953215 -0.0597781 0)
(0.954832 -0.0572941 0)
(0.955663 -0.0546711 0)
(0.955314 -0.0521895 0)
(0.954566 -0.0500015 0)
(0.953743 -0.048098 0)
(1.01046 -0.00184733 0)
(1.01129 -0.00647668 0)
(1.01265 -0.0106101 0)
(1.01438 -0.0154882 0)
(1.0163 -0.0206164 0)
(1.01815 -0.0262677 0)
(1.01972 -0.0322906 0)
(1.02073 -0.0386303 0)
(1.02099 -0.0451138 0)
(1.0203 -0.0515586 0)
(1.01856 -0.0577372 0)
(1.01575 -0.0634098 0)
(1.01194 -0.0683437 0)
(1.00728 -0.0723415 0)
(1.00189 -0.0753189 0)
(0.995913 -0.077317 0)
(0.989594 -0.0783966 0)
(0.983404 -0.0783229 0)
(0.977891 -0.0766732 0)
(0.973484 -0.0736133 0)
(0.971095 -0.0700831 0)
(0.971307 -0.0672195 0)
(0.97124 -0.0654783 0)
(0.966657 -0.0639568 0)
(0.958794 -0.0622149 0)
(0.952274 -0.06077 0)
(0.948184 -0.0594653 0)
(0.945397 -0.0581115 0)
(0.943331 -0.0567709 0)
(1.01157 -0.00186641 0)
(1.01253 -0.00654101 0)
(1.0141 -0.0107552 0)
(1.01614 -0.0157768 0)
(1.01842 -0.0211175 0)
(1.02071 -0.027084 0)
(1.02274 -0.033542 0)
(1.02424 -0.0404588 0)
(1.02497 -0.0476744 0)
(1.02469 -0.0550143 0)
(1.02324 -0.0622488 0)
(1.02051 -0.0691281 0)
(1.0165 -0.0754047 0)
(1.01128 -0.0808561 0)
(1.00501 -0.0853137 0)
(0.99803 -0.0885971 0)
(0.990745 -0.0905278 0)
(0.98347 -0.0912395 0)
(0.976183 -0.0915518 0)
(0.968668 -0.0922177 0)
(0.960456 -0.0927595 0)
(0.950884 -0.0919456 0)
(0.941527 -0.0892368 0)
(0.936617 -0.0857826 0)
(0.936602 -0.082586 0)
(0.936877 -0.0792322 0)
(0.935555 -0.0758719 0)
(0.933766 -0.0728961 0)
(0.932037 -0.070278 0)
(1.01256 -0.00187175 0)
(1.01365 -0.00655445 0)
(1.01544 -0.0108103 0)
(1.01776 -0.015923 0)
(1.02042 -0.0214118 0)
(1.02315 -0.0276153 0)
(1.02568 -0.0344188 0)
(1.02772 -0.0418133 0)
(1.02898 -0.0496635 0)
(1.0292 -0.0578231 0)
(1.02814 -0.0660851 0)
(1.02564 -0.0742079 0)
(1.02164 -0.0819152 0)
(1.01623 -0.0888922 0)
(1.00958 -0.0948263 0)
(1.00196 -0.0994644 0)
(0.993618 -0.102736 0)
(0.984865 -0.104668 0)
(0.976271 -0.10498 0)
(0.968619 -0.103197 0)
(0.962758 -0.099647 0)
(0.959611 -0.0958615 0)
(0.957967 -0.0933343 0)
(0.953061 -0.0915805 0)
(0.943314 -0.0893127 0)
(0.933748 -0.0870983 0)
(0.927543 -0.0852181 0)
(0.923301 -0.083221 0)
(0.920014 -0.0812096 0)
(1.01346 -0.00186773 0)
(1.01466 -0.00653262 0)
(1.01665 -0.0108008 0)
(1.01926 -0.0159633 0)
(1.02228 -0.021546 0)
(1.02545 -0.0279179 0)
(1.02848 -0.0349844 0)
(1.03108 -0.0427629 0)
(1.03293 -0.0511514 0)
(1.03372 -0.0600401 0)
(1.03321 -0.0692484 0)
(1.03118 -0.0785413 0)
(1.02754 -0.0876229 0)
(1.02225 -0.0961426 0)
(1.01534 -0.103772 0)
(1.00695 -0.110259 0)
(0.997383 -0.115396 0)
(0.987205 -0.11895 0)
(0.976894 -0.121049 0)
(0.966449 -0.122609 0)
(0.955463 -0.12422 0)
(0.943162 -0.124856 0)
(0.929873 -0.122924 0)
(0.919767 -0.118854 0)
(0.916386 -0.114695 0)
(0.915663 -0.110628 0)
(0.913087 -0.106225 0)
(0.909696 -0.102228 0)
(0.906625 -0.0987289 0)
(1.01426 -0.00185732 0)
(1.01557 -0.00648639 0)
(1.01774 -0.0107454 0)
(1.02062 -0.0159256 0)
(1.02399 -0.0215587 0)
(1.02759 -0.0280417 0)
(1.03111 -0.0353 0)
(1.03427 -0.0433764 0)
(1.03674 -0.0522026 0)
(1.03821 -0.0617051 0)
(1.03838 -0.0717356 0)
(1.03702 -0.0820907 0)
(1.0339 -0.0925106 0)
(1.02886 -0.102674 0)
(1.02184 -0.112225 0)
(1.01299 -0.120775 0)
(1.0027 -0.127925 0)
(0.991455 -0.133357 0)
(0.979681 -0.136806 0)
(0.968091 -0.137778 0)
(0.957813 -0.135874 0)
(0.950086 -0.131967 0)
(0.945079 -0.128404 0)
(0.939075 -0.126468 0)
(0.927654 -0.124324 0)
(0.914066 -0.12137 0)
(0.904417 -0.118779 0)
(0.898087 -0.11607 0)
(0.893047 -0.113136 0)
(1.01497 -0.00184257 0)
(1.01638 -0.00642338 0)
(1.01873 -0.0106573 0)
(1.02186 -0.0158311 0)
(1.02555 -0.0214804 0)
(1.02955 -0.0280285 0)
(1.03356 -0.0354178 0)
(1.03727 -0.0437131 0)
(1.04039 -0.0528775 0)
(1.04257 -0.0628759 0)
(1.04351 -0.0736072 0)
(1.04288 -0.084925 0)
(1.04042 -0.0966242 0)
(1.03589 -0.108403 0)
(1.02921 -0.119852 0)
(1.02042 -0.130496 0)
(1.00975 -0.139904 0)
(0.997489 -0.147691 0)
(0.984089 -0.153532 0)
(0.970006 -0.157761 0)
(0.955335 -0.16144 0)
(0.939487 -0.164596 0)
(0.921751 -0.165219 0)
(0.905052 -0.16172 0)
(0.895537 -0.156326 0)
(0.892362 -0.151291 0)
(0.888262 -0.14574 0)
(0.882435 -0.14023 0)
(0.877274 -0.135475 0)
(1.0156 -0.00182495 0)
(1.0171 -0.00634908 0)
(1.01961 -0.0105467 0)
(1.02297 -0.0156958 0)
(1.02697 -0.0213358 0)
(1.03134 -0.0279127 0)
(1.03581 -0.0353818 0)
(1.04007 -0.0438274 0)
(1.04381 -0.0532427 0)
(1.04671 -0.0636327 0)
(1.04843 -0.0749494 0)
(1.04863 -0.0871037 0)
(1.04702 -0.0999382 0)
(1.04334 -0.113186 0)
(1.03734 -0.126462 0)
(1.02888 -0.139313 0)
(1.01801 -0.151271 0)
(1.00502 -0.161806 0)
(0.990411 -0.170324 0)
(0.974903 -0.1762 0)
(0.959715 -0.178505 0)
(0.946086 -0.176805 0)
(0.935265 -0.173059 0)
(0.926271 -0.170756 0)
(0.913223 -0.169513 0)
(0.894889 -0.166466 0)
(0.879366 -0.162863 0)
(0.869476 -0.159353 0)
(0.861712 -0.155144 0)
(1.01617 -0.00180552 0)
(1.01775 -0.00626757 0)
(1.0204 -0.010421 0)
(1.02397 -0.0155322 0)
(1.02826 -0.0211439 0)
(1.03298 -0.0277218 0)
(1.03787 -0.0352293 0)
(1.04264 -0.0437696 0)
(1.04699 -0.0533631 0)
(1.05059 -0.0640504 0)
(1.05311 -0.0758306 0)
(1.05423 -0.0886665 0)
(1.05363 -0.10246 0)
(1.05096 -0.117023 0)
(1.04585 -0.132054 0)
(1.03801 -0.147121 0)
(1.02743 -0.161675 0)
(1.01431 -0.175082 0)
(0.998972 -0.18667 0)
(0.981861 -0.196041 0)
(0.96328 -0.203813 0)
(0.942846 -0.211006 0)
(0.9199 -0.216368 0)
(0.89562 -0.216283 0)
(0.876528 -0.210728 0)
(0.867362 -0.204328 0)
(0.860981 -0.197825 0)
(0.851673 -0.19031 0)
(0.8429 -0.183572 0)
(1.01668 -0.00178502 0)
(1.01834 -0.00618192 0)
(1.02112 -0.0102863 0)
(1.02488 -0.0153501 0)
(1.02942 -0.02092 0)
(1.03446 -0.0274783 0)
(1.03975 -0.0349923 0)
(1.045 -0.0435832 0)
(1.04992 -0.0532933 0)
(1.0542 -0.0641903 0)
(1.05754 -0.0763143 0)
(1.05961 -0.0896819 0)
(1.06008 -0.104269 0)
(1.05852 -0.119983 0)
(1.05452 -0.1366 0)
(1.04772 -0.153722 0)
(1.03793 -0.170799 0)
(1.02515 -0.18722 0)
(1.00952 -0.202319 0)
(0.991439 -0.21529 0)
(0.971735 -0.224869 0)
(0.951776 -0.229288 0)
(0.933294 -0.22835 0)
(0.917984 -0.226081 0)
(0.902077 -0.226355 0)
(0.878949 -0.225373 0)
(0.854213 -0.221067 0)
(0.837265 -0.216537 0)
(0.824974 -0.21092 0)
(1.01714 -0.00176397 0)
(1.01886 -0.00609449 0)
(1.02176 -0.010147 0)
(1.0257 -0.0151571 0)
(1.03048 -0.0206759 0)
(1.03581 -0.0271997 0)
(1.04146 -0.0346964 0)
(1.04715 -0.0433026 0)
(1.05261 -0.0530772 0)
(1.05754 -0.0641081 0)
(1.06167 -0.0764725 0)
(1.06468 -0.0902411 0)
(1.06622 -0.105462 0)
(1.06587 -0.122123 0)
(1.06319 -0.140086 0)
(1.05772 -0.159041 0)
(1.04909 -0.178525 0)
(1.03708 -0.197958 0)
(1.02179 -0.216641 0)
(1.00342 -0.233688 0)
(0.982022 -0.248469 0)
(0.957235 -0.261823 0)
(0.9287 -0.274507 0)
(0.896745 -0.28288 0)
(0.865197 -0.281569 0)
(0.843593 -0.27415 0)
(0.83177 -0.266871 0)
(0.817981 -0.257824 0)
(0.802757 -0.248095 0)
(1.01755 -0.00174277 0)
(1.01934 -0.00600716 0)
(1.02235 -0.0100067 0)
(1.02643 -0.0149595 0)
(1.03143 -0.0204211 0)
(1.03703 -0.0268998 0)
(1.04301 -0.0343618 0)
(1.04911 -0.0429561 0)
(1.05507 -0.0527537 0)
(1.06061 -0.0638578 0)
(1.06547 -0.0763785 0)
(1.06937 -0.0904324 0)
(1.07198 -0.106125 0)
(1.0729 -0.123523 0)
(1.07165 -0.142587 0)
(1.06769 -0.163134 0)
(1.06051 -0.184804 0)
(1.04981 -0.207071 0)
(1.03552 -0.229313 0)
(1.01759 -0.250748 0)
(0.995856 -0.270097 0)
(0.97084 -0.285057 0)
(0.944548 -0.292739 0)
(0.919843 -0.293914 0)
(0.897749 -0.29599 0)
(0.870407 -0.300346 0)
(0.83432 -0.298667 0)
(0.803539 -0.293016 0)
(0.78288 -0.286457 0)
(1.01793 -0.00172175 0)
(1.01977 -0.00592141 0)
(1.02287 -0.00986849 0)
(1.0271 -0.014762 0)
(1.03229 -0.0201632 0)
(1.03813 -0.0265896 0)
(1.04441 -0.0340042 0)
(1.05089 -0.0425664 0)
(1.0573 -0.0523557 0)
(1.06339 -0.0634867 0)
(1.06895 -0.076094 0)
(1.07369 -0.0903301 0)
(1.07734 -0.106348 0)
(1.07953 -0.124292 0)
(1.07974 -0.144227 0)
(1.07739 -0.166084 0)
(1.07195 -0.189623 0)
(1.063 -0.214432 0)
(1.05031 -0.240019 0)
(1.03361 -0.265713 0)
(1.01227 -0.290302 0)
(0.985399 -0.313005 0)
(0.952612 -0.335351 0)
(0.914098 -0.357075 0)
(0.870433 -0.369383 0)
(0.829546 -0.366293 0)
(0.803365 -0.35817 0)
(0.783401 -0.349765 0)
(0.758442 -0.336975 0)
(1.01826 -0.00170121 0)
(1.02015 -0.00583848 0)
(1.02334 -0.00973441 0)
(1.02769 -0.0145685 0)
(1.03305 -0.0199082 0)
(1.0391 -0.0262778 0)
(1.04567 -0.0336366 0)
(1.05248 -0.0421526 0)
(1.05931 -0.0519106 0)
(1.06592 -0.0630328 0)
(1.0721 -0.0756696 0)
(1.07765 -0.090002 0)
(1.0823 -0.106224 0)
(1.0857 -0.124548 0)
(1.08735 -0.145133 0)
(1.0867 -0.168008 0)
(1.08316 -0.193072 0)
(1.07627 -0.220075 0)
(1.06564 -0.248682 0)
(1.05085 -0.278448 0)
(1.03091 -0.308401 0)
(1.00485 -0.336605 0)
(0.973838 -0.35956 0)
(0.94059 -0.37274 0)
(0.907774 -0.378828 0)
(0.874351 -0.390046 0)
(0.829039 -0.400013 0)
(0.776471 -0.396561 0)
(0.737676 -0.389436 0)
(1.01855 -0.00168138 0)
(1.02049 -0.00575927 0)
(1.02375 -0.00960612 0)
(1.02821 -0.0143818 0)
(1.03373 -0.0196604 0)
(1.03998 -0.0259714 0)
(1.04679 -0.033269 0)
(1.0539 -0.0417295 0)
(1.06111 -0.0514393 0)
(1.06819 -0.0625255 0)
(1.07496 -0.0751475 0)
(1.08125 -0.0895088 0)
(1.08682 -0.105837 0)
(1.09136 -0.124399 0)
(1.09443 -0.145431 0)
(1.09546 -0.169055 0)
(1.09389 -0.195307 0)
(1.08922 -0.224113 0)
(1.08104 -0.255311 0)
(1.06879 -0.288649 0)
(1.05126 -0.323389 0)
(1.02676 -0.358022 0)
(0.994055 -0.392313 0)
(0.952827 -0.42928 0)
(0.901943 -0.46627 0)
(0.841285 -0.484632 0)
(0.786357 -0.479717 0)
(0.750417 -0.47293 0)
(0.714462 -0.461576 0)
(1.01881 -0.00166249 0)
(1.02079 -0.00568447 0)
(1.02411 -0.00948481 0)
(1.02867 -0.014204 0)
(1.03433 -0.0194233 0)
(1.04075 -0.0256754 0)
(1.04778 -0.0329096 0)
(1.05517 -0.041309 0)
(1.06271 -0.0509588 0)
(1.07022 -0.0619896 0)
(1.07752 -0.0745645 0)
(1.08448 -0.0889041 0)
(1.0909 -0.105261 0)
(1.09652 -0.123943 0)
(1.10093 -0.145252 0)
(1.10359 -0.169396 0)
(1.10395 -0.196522 0)
(1.10159 -0.226722 0)
(1.09614 -0.26003 0)
(1.08686 -0.296375 0)
(1.07234 -0.335425 0)
(1.05077 -0.376348 0)
(1.0212 -0.417062 0)
(0.984988 -0.452223 0)
(0.943536 -0.474446 0)
(0.899258 -0.49126 0)
(0.847672 -0.520818 0)
(0.773643 -0.537765 0)
(0.697137 -0.530374 0)
(1.01904 -0.00164467 0)
(1.02106 -0.00561451 0)
(1.02444 -0.0093712 0)
(1.02908 -0.0140365 0)
(1.03486 -0.0191992 0)
(1.04143 -0.0253936 0)
(1.04866 -0.0325641 0)
(1.05629 -0.0408998 0)
(1.06414 -0.0504824 0)
(1.07202 -0.0614447 0)
(1.0798 -0.0739505 0)
(1.08736 -0.0882306 0)
(1.09456 -0.104557 0)
(1.10117 -0.123266 0)
(1.10683 -0.144713 0)
(1.11103 -0.169181 0)
(1.11326 -0.196906 0)
(1.1132 -0.228114 0)
(1.11058 -0.263043 0)
(1.10455 -0.301822 0)
(1.09355 -0.34433 0)
(1.07604 -0.390246 0)
(1.05028 -0.438622 0)
(1.013 -0.489919 0)
(0.962906 -0.550729 0)
(0.897109 -0.615665 0)
(0.809762 -0.645432 0)
(0.727577 -0.639424 0)
(0.670235 -0.635271 0)
(1.01924 -0.00162806 0)
(1.02129 -0.00554968 0)
(1.02472 -0.00926579 0)
(1.02944 -0.0138805 0)
(1.03533 -0.0189898 0)
(1.04203 -0.0251286 0)
(1.04944 -0.0322369 0)
(1.05728 -0.0405086 0)
(1.0654 -0.0500207 0)
(1.07361 -0.0609069 0)
(1.08181 -0.0733293 0)
(1.08992 -0.0875235 0)
(1.09782 -0.103775 0)
(1.10533 -0.122442 0)
(1.11213 -0.143921 0)
(1.11777 -0.168552 0)
(1.12179 -0.196649 0)
(1.12393 -0.228537 0)
(1.12406 -0.264619 0)
(1.12144 -0.305246 0)
(1.1143 -0.350444 0)
(1.10114 -0.400427 0)
(1.08093 -0.455854 0)
(1.05118 -0.514817 0)
(1.01068 -0.568545 0)
(0.959768 -0.605166 0)
(0.90073 -0.646408 0)
(0.816886 -0.716685 0)
(0.686152 -0.737853 0)
(1.01942 -0.0016127 0)
(1.0215 -0.00549007 0)
(1.02497 -0.00916874 0)
(1.02976 -0.0137364 0)
(1.03574 -0.018796 0)
(1.04256 -0.0248821 0)
(1.05012 -0.0319306 0)
(1.05816 -0.0401398 0)
(1.06651 -0.0495808 0)
(1.07502 -0.0603874 0)
(1.0836 -0.0727182 0)
(1.09218 -0.0868095 0)
(1.10071 -0.102956 0)
(1.10903 -0.12153 0)
(1.11687 -0.142959 0)
(1.12382 -0.167629 0)
(1.12949 -0.195914 0)
(1.13372 -0.228219 0)
(1.13644 -0.26504 0)
(1.13715 -0.306935 0)
(1.1341 -0.354166 0)
(1.12559 -0.407018 0)
(1.11169 -0.466846 0)
(1.08975 -0.534265 0)
(1.05002 -0.609691 0)
(0.992207 -0.709008 0)
(0.916351 -0.833901 0)
(0.780127 -0.897537 0)
(0.614746 -0.886101 0)
(1.01958 -0.00159862 0)
(1.02168 -0.00543571 0)
(1.02518 -0.0090801 0)
(1.03004 -0.0136045 0)
(1.0361 -0.0186181 0)
(1.04303 -0.024655 0)
(1.05073 -0.0316474 0)
(1.05893 -0.0397965 0)
(1.06749 -0.0491682 0)
(1.07626 -0.059895 0)
(1.08516 -0.0721308 0)
(1.09417 -0.0861102 0)
(1.10325 -0.102132 0)
(1.11229 -0.120581 0)
(1.12105 -0.141903 0)
(1.12919 -0.166518 0)
(1.13637 -0.194849 0)
(1.14252 -0.227367 0)
(1.14767 -0.264614 0)
(1.15143 -0.307249 0)
(1.15247 -0.355843 0)
(1.14896 -0.410747 0)
(1.14075 -0.473403 0)
(1.12781 -0.547824 0)
(1.10485 -0.634362 0)
(1.06629 -0.715735 0)
(1.00733 -0.774383 0)
(0.93052 -0.882374 0)
(0.763968 -1.05276 0)
(1.01971 -0.00158583 0)
(1.02183 -0.00538648 0)
(1.02537 -0.00899969 0)
(1.03028 -0.0134846 0)
(1.03641 -0.0184563 0)
(1.04343 -0.0244476 0)
(1.05125 -0.0313877 0)
(1.0596 -0.0394803 0)
(1.06834 -0.0487857 0)
(1.07734 -0.0594347 0)
(1.08654 -0.0715758 0)
(1.09592 -0.0854403 0)
(1.10548 -0.101329 0)
(1.11515 -0.11963 0)
(1.12474 -0.140807 0)
(1.13393 -0.165303 0)
(1.14246 -0.193574 0)
(1.15036 -0.22614 0)
(1.15773 -0.263582 0)
(1.16424 -0.306551 0)
(1.16901 -0.355838 0)
(1.1706 -0.412131 0)
(1.1682 -0.476413 0)
(1.16398 -0.552963 0)
(1.15624 -0.645925 0)
(1.12354 -0.749224 0)
(1.06558 -0.90182 0)
(1.00097 -1.17793 0)
(0.716034 -1.29441 0)
(0.998796 -0.00346271 0)
(0.99917 -0.00335083 0)
(0.999403 -0.00324248 0)
(0.999496 -0.00313787 0)
(0.999437 -0.003037 0)
(0.999202 -0.00293941 0)
(0.998758 -0.00284455 0)
(0.998064 -0.00275177 0)
(0.997084 -0.00266028 0)
(0.995789 -0.00256912 0)
(0.994171 -0.002477 0)
(0.992253 -0.00238223 0)
(0.990095 -0.00228259 0)
(0.987802 -0.00217526 0)
(0.985514 -0.00205691 0)
(0.983401 -0.00192387 0)
(0.981638 -0.00177261 0)
(0.980384 -0.00160028 0)
(0.979754 -0.00140543 0)
(0.997871 0.000600111 0)
(0.997571 0.000728253 0)
(0.997415 0.000873694 0)
(0.997392 0.00103401 0)
(0.997508 0.00120774 0)
(0.997782 0.00139268 0)
(0.998245 0.00158596 0)
(0.998933 0.00178396 0)
(0.999879 0.00198212 0)
(1.00111 0.00217486 0)
(1.00262 0.00235553 0)
(1.00437 0.00251654 0)
(1.00631 0.00264961 0)
(1.00831 0.00274627 0)
(1.01021 0.00279855 0)
(1.01187 0.00279985 0)
(1.01311 0.0027461 0)
(1.01379 0.00263676 0)
(1.01386 0.00247571 0)
(0.993722 -0.00980371 0)
(0.993693 -0.00944226 0)
(0.993565 -0.00908708 0)
(0.993347 -0.0087359 0)
(0.993039 -0.00838803 0)
(0.992631 -0.00804234 0)
(0.992112 -0.00769774 0)
(0.991465 -0.00735332 0)
(0.990681 -0.00700827 0)
(0.989758 -0.00666199 0)
(0.988712 -0.00631419 0)
(0.987583 -0.00596499 0)
(0.986431 -0.00561494 0)
(0.985346 -0.00526492 0)
(0.984426 -0.00491582 0)
(0.983776 -0.00456824 0)
(0.983479 -0.00422206 0)
(0.983582 -0.00387627 0)
(0.984083 -0.00352904 0)
(0.989762 -0.011141 0)
(0.989571 -0.0108504 0)
(0.989473 -0.0105531 0)
(0.989467 -0.0102536 0)
(0.989563 -0.00995338 0)
(0.989783 -0.00965387 0)
(0.990159 -0.00935639 0)
(0.990726 -0.00906152 0)
(0.991517 -0.00876871 0)
(0.99256 -0.0084758 0)
(0.993861 -0.00817842 0)
(0.995399 -0.00786977 0)
(0.997117 -0.0075407 0)
(0.998913 -0.00718058 0)
(1.00065 -0.00677873 0)
(1.00217 -0.00632658 0)
(1.00331 -0.00581987 0)
(1.00393 -0.00526043 0)
(1.00395 -0.0046569 0)
(0.984479 -0.0175133 0)
(0.984324 -0.0169106 0)
(0.984123 -0.0162976 0)
(0.983882 -0.0156724 0)
(0.983597 -0.0150346 0)
(0.983256 -0.0143828 0)
(0.982839 -0.0137153 0)
(0.982318 -0.0130308 0)
(0.98166 -0.012329 0)
(0.980832 -0.0116111 0)
(0.979807 -0.0108809 0)
(0.978578 -0.0101453 0)
(0.977167 -0.0094142 0)
(0.975635 -0.0087004 0)
(0.974086 -0.00801732 0)
(0.972664 -0.00737649 0)
(0.971529 -0.00678439 0)
(0.970831 -0.0062397 0)
(0.970674 -0.00573215 0)
(0.978437 -0.0225788 0)
(0.978051 -0.0220812 0)
(0.977725 -0.021576 0)
(0.977456 -0.0210662 0)
(0.977249 -0.0205506 0)
(0.977122 -0.0200285 0)
(0.977102 -0.0194992 0)
(0.977229 -0.0189615 0)
(0.977551 -0.018413 0)
(0.97812 -0.0178495 0)
(0.978985 -0.0172644 0)
(0.980174 -0.0166472 0)
(0.981681 -0.0159836 0)
(0.983443 -0.0152562 0)
(0.985333 -0.0144463 0)
(0.987161 -0.0135378 0)
(0.988691 -0.012522 0)
(0.989686 -0.0114023 0)
(0.989953 -0.0101972 0)
(0.971114 -0.0297961 0)
(0.970812 -0.0287343 0)
(0.970473 -0.027651 0)
(0.970099 -0.0265464 0)
(0.969686 -0.0254225 0)
(0.969221 -0.024279 0)
(0.96868 -0.0231152 0)
(0.968028 -0.0219301 0)
(0.967217 -0.020723 0)
(0.966186 -0.0194939 0)
(0.96487 -0.0182456 0)
(0.963213 -0.0169846 0)
(0.961185 -0.0157231 0)
(0.958811 -0.0144794 0)
(0.956194 -0.0132772 0)
(0.953528 -0.0121415 0)
(0.951091 -0.0110933 0)
(0.949201 -0.0101422 0)
(0.948153 -0.00928053 0)
(0.962023 -0.0368218 0)
(0.961267 -0.0359932 0)
(0.960576 -0.035136 0)
(0.959937 -0.034256 0)
(0.959347 -0.0333531 0)
(0.958814 -0.0324286 0)
(0.958356 -0.0314849 0)
(0.958005 -0.0305246 0)
(0.957809 -0.029551 0)
(0.957835 -0.0285667 0)
(0.958164 -0.0275728 0)
(0.958881 -0.0265663 0)
(0.960051 -0.0255374 0)
(0.961695 -0.0244676 0)
(0.963744 -0.0233289 0)
(0.966019 -0.022086 0)
(0.968224 -0.020704 0)
(0.969978 -0.0191585 0)
(0.970899 -0.0174478 0)
(0.952953 -0.0464472 0)
(0.952185 -0.0448838 0)
(0.951404 -0.043277 0)
(0.950618 -0.0416293 0)
(0.949827 -0.0399444 0)
(0.949026 -0.0382238 0)
(0.948203 -0.036468 0)
(0.947332 -0.0346769 0)
(0.946373 -0.0328496 0)
(0.945262 -0.0309845 0)
(0.943912 -0.0290807 0)
(0.942213 -0.0271401 0)
(0.940052 -0.0251707 0)
(0.937345 -0.0231906 0)
(0.934083 -0.0212305 0)
(0.930393 -0.0193332 0)
(0.926572 -0.0175476 0)
(0.923089 -0.0159154 0)
(0.9205 -0.0144548 0)
(0.941723 -0.0554728 0)
(0.940334 -0.0541811 0)
(0.939034 -0.0528377 0)
(0.937806 -0.0514503 0)
(0.936643 -0.0500197 0)
(0.935543 -0.0485481 0)
(0.934516 -0.0470385 0)
(0.933577 -0.0454947 0)
(0.93276 -0.0439214 0)
(0.932122 -0.0423244 0)
(0.931746 -0.0407103 0)
(0.931749 -0.0390845 0)
(0.932269 -0.037448 0)
(0.933437 -0.0357927 0)
(0.935322 -0.034095 0)
(0.937862 -0.0323126 0)
(0.940792 -0.0303869 0)
(0.943629 -0.0282565 0)
(0.945733 -0.0258808 0)
(0.930457 -0.0679792 0)
(0.928968 -0.0657854 0)
(0.92749 -0.0635184 0)
(0.926036 -0.0611825 0)
(0.924613 -0.0587816 0)
(0.923223 -0.0563172 0)
(0.921862 -0.0537907 0)
(0.92052 -0.0512036 0)
(0.919174 -0.0485573 0)
(0.917781 -0.0458523 0)
(0.91627 -0.043089 0)
(0.914528 -0.0402674 0)
(0.912399 -0.0373907 0)
(0.9097 -0.03447 0)
(0.906265 -0.0315321 0)
(0.902032 -0.0286264 0)
(0.897162 -0.0258266 0)
(0.892134 -0.0232191 0)
(0.887744 -0.0208753 0)
(0.917403 -0.0792686 0)
(0.915114 -0.0773223 0)
(0.912946 -0.075281 0)
(0.910883 -0.0731585 0)
(0.908919 -0.0709625 0)
(0.907053 -0.0687024 0)
(0.905291 -0.0663886 0)
(0.903645 -0.064032 0)
(0.902138 -0.0616437 0)
(0.900808 -0.0592347 0)
(0.899718 -0.0568169 0)
(0.898974 -0.0544018 0)
(0.898727 -0.0519999 0)
(0.899181 -0.0496151 0)
(0.900549 -0.0472367 0)
(0.90297 -0.0448264 0)
(0.906368 -0.0423078 0)
(0.910311 -0.039569 0)
(0.91396 -0.0364907 0)
(0.903875 -0.0956088 0)
(0.901322 -0.09262 0)
(0.898832 -0.0895224 0)
(0.896429 -0.0863247 0)
(0.89413 -0.0830299 0)
(0.891946 -0.0796376 0)
(0.889881 -0.0761476 0)
(0.887933 -0.0725597 0)
(0.886091 -0.0688738 0)
(0.884328 -0.0650899 0)
(0.882595 -0.0612075 0)
(0.880802 -0.0572255 0)
(0.878798 -0.0531421 0)
(0.876361 -0.0489586 0)
(0.873195 -0.044688 0)
(0.868999 -0.0403692 0)
(0.863618 -0.0360859 0)
(0.85728 -0.0319725 0)
(0.850818 -0.0281919 0)
(0.889013 -0.110283 0)
(0.885481 -0.10737 0)
(0.882137 -0.104267 0)
(0.878969 -0.101001 0)
(0.875971 -0.0975942 0)
(0.873144 -0.0940696 0)
(0.870491 -0.0904525 0)
(0.86802 -0.0867685 0)
(0.865743 -0.0830432 0)
(0.863682 -0.0793018 0)
(0.861874 -0.0755694 0)
(0.860386 -0.071871 0)
(0.859338 -0.0682322 0)
(0.858927 -0.0646775 0)
(0.859439 -0.0612243 0)
(0.861216 -0.0578678 0)
(0.864509 -0.0545532 0)
(0.869216 -0.0511479 0)
(0.874569 -0.0474375 0)
(0.872765 -0.131155 0)
(0.868601 -0.126973 0)
(0.864603 -0.122618 0)
(0.860802 -0.118094 0)
(0.85723 -0.113414 0)
(0.853912 -0.108577 0)
(0.85086 -0.103588 0)
(0.848081 -0.098453 0)
(0.845574 -0.0931762 0)
(0.843325 -0.0877637 0)
(0.841302 -0.0822205 0)
(0.839448 -0.0765502 0)
(0.837654 -0.0707545 0)
(0.835729 -0.0648324 0)
(0.833359 -0.0587844 0)
(0.830089 -0.0526252 0)
(0.825396 -0.0464151 0)
(0.818956 -0.0402971 0)
(0.811138 -0.034521 0)
(0.85536 -0.150874 0)
(0.849879 -0.146442 0)
(0.844709 -0.141593 0)
(0.83987 -0.136418 0)
(0.835368 -0.130952 0)
(0.831208 -0.125249 0)
(0.827405 -0.119362 0)
(0.823966 -0.113344 0)
(0.820899 -0.107251 0)
(0.81821 -0.101139 0)
(0.815914 -0.0950688 0)
(0.814038 -0.089099 0)
(0.812644 -0.083291 0)
(0.811858 -0.0777066 0)
(0.81192 -0.0724061 0)
(0.813224 -0.0674418 0)
(0.816291 -0.0628248 0)
(0.821542 -0.0584799 0)
(0.828773 -0.054162 0)
(0.835565 -0.177438 0)
(0.828742 -0.171272 0)
(0.822286 -0.164778 0)
(0.816243 -0.157912 0)
(0.810661 -0.150717 0)
(0.805605 -0.14322 0)
(0.8011 -0.135449 0)
(0.797174 -0.127449 0)
(0.793838 -0.119261 0)
(0.791094 -0.110927 0)
(0.788924 -0.102482 0)
(0.787291 -0.0939591 0)
(0.786119 -0.0853816 0)
(0.785267 -0.0767643 0)
(0.784479 -0.0681146 0)
(0.783301 -0.0594316 0)
(0.78101 -0.0507513 0)
(0.776708 -0.0421776 0)
(0.769725 -0.0339737 0)
(0.814471 -0.204447 0)
(0.805522 -0.197632 0)
(0.797138 -0.189907 0)
(0.789354 -0.181493 0)
(0.782282 -0.172474 0)
(0.775931 -0.16294 0)
(0.770367 -0.153008 0)
(0.765614 -0.142781 0)
(0.761697 -0.132377 0)
(0.758615 -0.121918 0)
(0.756364 -0.111535 0)
(0.754935 -0.101366 0)
(0.754326 -0.0915586 0)
(0.754573 -0.0822661 0)
(0.755796 -0.0736428 0)
(0.75828 -0.0658537 0)
(0.762589 -0.0590052 0)
(0.769472 -0.0531619 0)
(0.779703 -0.0482117 0)
(0.790364 -0.239402 0)
(0.77888 -0.23014 0)
(0.767983 -0.220054 0)
(0.757986 -0.209129 0)
(0.748878 -0.197375 0)
(0.740858 -0.184945 0)
(0.733978 -0.171927 0)
(0.72832 -0.158472 0)
(0.723918 -0.144724 0)
(0.720804 -0.130833 0)
(0.718973 -0.116943 0)
(0.7184 -0.103185 0)
(0.719019 -0.0896673 0)
(0.720711 -0.076468 0)
(0.723258 -0.0636426 0)
(0.726254 -0.0511699 0)
(0.728892 -0.0390971 0)
(0.730076 -0.0274712 0)
(0.727826 -0.016423 0)
(0.765196 -0.277134 0)
(0.749686 -0.266639 0)
(0.735466 -0.254467 0)
(0.722224 -0.240675 0)
(0.710443 -0.225672 0)
(0.700142 -0.209542 0)
(0.691505 -0.192557 0)
(0.684601 -0.174937 0)
(0.679517 -0.156922 0)
(0.676259 -0.138764 0)
(0.674832 -0.120727 0)
(0.675192 -0.103083 0)
(0.677275 -0.0861248 0)
(0.681005 -0.0701691 0)
(0.686341 -0.0555329 0)
(0.693333 -0.0426574 0)
(0.702529 -0.0318023 0)
(0.714404 -0.0233023 0)
(0.730778 -0.0175353 0)
(0.736268 -0.324536 0)
(0.716728 -0.311192 0)
(0.697692 -0.295359 0)
(0.680562 -0.277863 0)
(0.665182 -0.258428 0)
(0.651973 -0.237521 0)
(0.641056 -0.215406 0)
(0.632622 -0.1924 0)
(0.626699 -0.168853 0)
(0.623377 -0.145101 0)
(0.62264 -0.121479 0)
(0.624467 -0.0983207 0)
(0.628786 -0.0759384 0)
(0.635476 -0.0545955 0)
(0.644318 -0.0345656 0)
(0.655039 -0.015794 0)
(0.666419 0.00150545 0)
(0.677865 0.0173935 0)
(0.68611 0.0322085 0)
(0.708334 -0.37824 0)
(0.680759 -0.362036 0)
(0.656108 -0.343227 0)
(0.633377 -0.320873 0)
(0.61345 -0.296063 0)
(0.59651 -0.269176 0)
(0.582859 -0.24062 0)
(0.572502 -0.21095 0)
(0.565648 -0.180578 0)
(0.562237 -0.149948 0)
(0.562318 -0.119499 0)
(0.565846 -0.0896675 0)
(0.572765 -0.0609216 0)
(0.582966 -0.0338191 0)
(0.596351 -0.00882436 0)
(0.612457 0.0129679 0)
(0.632417 0.0311694 0)
(0.655203 0.0446541 0)
(0.683973 0.0515986 0)
(0.674458 -0.442914 0)
(0.640414 -0.424067 0)
(0.607764 -0.399355 0)
(0.578504 -0.370861 0)
(0.553173 -0.339142 0)