/*--------------------------------*- C++ -*----------------------------------*\
  =========                 |
  \\      /  F ield         | OpenFOAM: The Open Source CFD Toolbox
   \\    /   O peration     | Website:  https://openfoam.org
    \\  /    A nd           | Version:  10
     \\/     M anipulation  |
\*---------------------------------------------------------------------------*/
FoamFile
{
    format      ascii;
    class       volVectorField;
    location    "0";
    object      U;
}
// * * * * * * * * * * * * * * * * * * * * * * * * * * * * * * * * * * * * * //

dimensions      [0 1 -1 0 0 0 0];

internalField   nonuniform List<vector> 
18483
(
(0.999997 -0.000202704 0)
(0.999998 -0.000723817 0)
(1 -0.00115247 0)
(1 -0.00161469 0)
(1.00001 -0.0020559 0)
(1.00001 -0.00248369 0)
(1.00001 -0.00288058 0)
(1.00002 -0.00323374 0)
(1.00002 -0.00353074 0)
(1.00003 -0.00376155 0)
(1.00004 -0.00391808 0)
(1.00005 -0.00400049 0)
(1.00007 -0.0040129 0)
(1.0001 -0.003984 0)
(1.00011 -0.0039546 0)
(1.00011 -0.00394629 0)
(1.00008 -0.003932 0)
(0.999924 -0.0038466 0)
(0.999321 -0.00364138 0)
(0.997728 -0.00333271 0)
(0.994957 -0.00305466 0)
(0.992063 -0.00298415 0)
(0.990719 -0.0031076 0)
(0.991351 -0.00323145 0)
(0.992988 -0.0032459 0)
(0.994652 -0.00316615 0)
(0.99595 -0.00303801 0)
(0.996859 -0.00289644 0)
(0.99747 -0.00276069 0)
(1.00063 -0.000600274 0)
(1.00065 -0.00212346 0)
(1.00071 -0.00336098 0)
(1.00077 -0.00468536 0)
(1.00083 -0.00592779 0)
(1.00087 -0.00711837 0)
(1.00088 -0.00820784 0)
(1.00085 -0.00916344 0)
(1.00077 -0.00995196 0)
(1.00064 -0.0105558 0)
(1.00045 -0.0109768 0)
(1.00022 -0.0112467 0)
(0.99997 -0.0114143 0)
(0.999715 -0.0114567 0)
(0.999468 -0.0113051 0)
(0.999191 -0.0109194 0)
(0.998827 -0.0103467 0)
(0.998428 -0.00972938 0)
(0.998453 -0.00920756 0)
(0.999972 -0.00883216 0)
(1.00378 -0.00844315 0)
(1.00843 -0.00774754 0)
(1.01076 -0.00679135 0)
(1.00966 -0.00596953 0)
(1.0068 -0.0054781 0)
(1.004 -0.00523452 0)
(1.00189 -0.00511626 0)
(1.00046 -0.00504583 0)
(0.99951 -0.00498695 0)
(1.00181 -0.000951888 0)
(1.00187 -0.00334301 0)
(1.00202 -0.00527741 0)
(1.00217 -0.00734815 0)
(1.00231 -0.00927889 0)
(1.0024 -0.0111314 0)
(1.0024 -0.0128312 0)
(1.0023 -0.014336 0)
(1.00207 -0.0156017 0)
(1.00172 -0.0166049 0)
(1.00127 -0.0173363 0)
(1.00078 -0.0177859 0)
(1.00033 -0.0179579 0)
(0.999945 -0.0178801 0)
(0.999595 -0.0176653 0)
(0.999213 -0.0175119 0)
(0.998767 -0.017528 0)
(0.998161 -0.0176097 0)
(0.996854 -0.0175357 0)
(0.993688 -0.0171497 0)
(0.988006 -0.0165346 0)
(0.981852 -0.0160229 0)
(0.979221 -0.0157284 0)
(0.981246 -0.015359 0)
(0.985248 -0.0147449 0)
(0.988766 -0.0140156 0)
(0.991164 -0.0133122 0)
(0.992646 -0.0126965 0)
(0.993532 -0.0121825 0)
(1.00324 -0.00125584 0)
(1.00336 -0.0043885 0)
(1.00361 -0.00692641 0)
(1.00387 -0.00965912 0)
(1.00411 -0.0122166 0)
(1.00426 -0.0146969 0)
(1.00428 -0.0170051 0)
(1.00411 -0.0190888 0)
(1.00374 -0.0208761 0)
(1.00317 -0.0223084 0)
(1.00246 -0.0233342 0)
(1.00163 -0.0239234 0)
(1.00072 -0.0241117 0)
(0.999742 -0.024007 0)
(0.998694 -0.0236919 0)
(0.997618 -0.0230724 0)
(0.996545 -0.0219595 0)
(0.995491 -0.0203944 0)
(0.994874 -0.0187065 0)
(0.996119 -0.0172325 0)
(1.00065 -0.0160905 0)
(1.00658 -0.0150598 0)
(1.00895 -0.0139728 0)
(1.00599 -0.0130716 0)
(1.00088 -0.0125271 0)
(0.996649 -0.0121881 0)
(0.993888 -0.0118931 0)
(0.99221 -0.0115871 0)
(0.991182 -0.0112631 0)
(1.00474 -0.00151922 0)
(1.00493 -0.00529081 0)
(1.00529 -0.00836233 0)
(1.00567 -0.0116988 0)
(1.00604 -0.0148516 0)
(1.0063 -0.0179591 0)
(1.00637 -0.0209084 0)
(1.00618 -0.0236378 0)
(1.00568 -0.0260483 0)
(1.00487 -0.0280633 0)
(1.00375 -0.0296332 0)
(1.00236 -0.0307557 0)
(1.00075 -0.0314746 0)
(0.99904 -0.0318281 0)
(0.997371 -0.0318432 0)
(0.995804 -0.0316215 0)
(0.994282 -0.0314537 0)
(0.992626 -0.0315726 0)
(0.990309 -0.0318084 0)
(0.986083 -0.0317425 0)
(0.978861 -0.0310609 0)
(0.970768 -0.0298983 0)
(0.967242 -0.0286579 0)
(0.970198 -0.0273745 0)
(0.975492 -0.0259139 0)
(0.979479 -0.0244322 0)
(0.981717 -0.0231016 0)
(0.982824 -0.0219645 0)
(0.983314 -0.0210164 0)
(1.00628 -0.00174775 0)
(1.00654 -0.00607072 0)
(1.00702 -0.00961441 0)
(1.00756 -0.013499 0)
(1.00811 -0.0172117 0)
(1.00853 -0.0209369 0)
(1.00872 -0.0245494 0)
(1.00858 -0.0279896 0)
(1.00802 -0.0311459 0)
(1.00701 -0.0339257 0)
(1.00557 -0.0362483 0)
(1.00379 -0.0380379 0)
(1.00181 -0.0392218 0)
(0.999769 -0.0397348 0)
(0.997744 -0.0395961 0)
(0.995739 -0.0388552 0)
(0.993746 -0.037456 0)
(0.991813 -0.0353163 0)
(0.990281 -0.0326385 0)
(0.990338 -0.0300582 0)
(0.993556 -0.0282534 0)
(0.998636 -0.0273679 0)
(1.00026 -0.0268311 0)
(0.995692 -0.0262341 0)
(0.988787 -0.0257444 0)
(0.983559 -0.0253397 0)
(0.980431 -0.0248788 0)
(0.978607 -0.0243624 0)
(0.977493 -0.023816 0)
(1.00785 -0.00194573 0)
(1.0082 -0.0067417 0)
(1.00882 -0.0106964 0)
(1.00955 -0.0150657 0)
(1.01033 -0.0192848 0)
(1.01097 -0.0235888 0)
(1.01136 -0.0278484 0)
(1.01135 -0.0320141 0)
(1.01085 -0.0359606 0)
(1.00979 -0.0395586 0)
(1.0082 -0.0426672 0)
(1.00612 -0.0451555 0)
(1.00364 -0.0469535 0)
(1.00081 -0.0480703 0)
(0.997678 -0.0486062 0)
(0.994343 -0.0487244 0)
(0.990914 -0.0486934 0)
(0.987452 -0.0488309 0)
(0.98385 -0.0492527 0)
(0.979349 -0.04961 0)
(0.972592 -0.0492155 0)
(0.964276 -0.0476774 0)
(0.959219 -0.0454904 0)
(0.960683 -0.0434151 0)
(0.96506 -0.0414061 0)
(0.968021 -0.0393856 0)
(0.969193 -0.0375652 0)
(0.969451 -0.0359895 0)
(0.969313 -0.0346487 0)
(1.00944 -0.00211777 0)
(1.00988 -0.00731856 0)
(1.01066 -0.0116254 0)
(1.0116 -0.0164117 0)
(1.01262 -0.0210692 0)
(1.01354 -0.0258861 0)
(1.01419 -0.0307356 0)
(1.01442 -0.0355839 0)
(1.01408 -0.0402993 0)
(1.01306 -0.0447372 0)
(1.01132 -0.0487428 0)
(1.00884 -0.0521856 0)
(1.00569 -0.0549872 0)
(1.00204 -0.0570815 0)
(0.9981 -0.0583845 0)
(0.994111 -0.0587977 0)
(0.990297 -0.0582237 0)
(0.986859 -0.0565477 0)
(0.984022 -0.0538394 0)
(0.982374 -0.0506163 0)
(0.983076 -0.0477369 0)
(0.986127 -0.0459283 0)
(0.987445 -0.0450996 0)
(0.982901 -0.0443364 0)
(0.975089 -0.0434681 0)
(0.968916 -0.0427817 0)
(0.965187 -0.042084 0)
(0.962869 -0.0413215 0)
(0.96132 -0.0405334 0)
(1.01102 -0.00226827 0)
(1.01155 -0.00781638 0)
(1.01249 -0.0124223 0)
(1.01364 -0.0175596 0)
(1.01493 -0.0225818 0)
(1.01615 -0.0278307 0)
(1.01712 -0.0331879 0)
(1.01765 -0.0386464 0)
(1.01755 -0.0440887 0)
(1.01666 -0.0493826 0)
(1.01488 -0.0543675 0)
(1.01219 -0.0588617 0)
(1.00872 -0.0626739 0)
(1.00464 -0.0656183 0)
(1.00011 -0.0675849 0)
(0.995214 -0.0686047 0)
(0.990038 -0.0689578 0)
(0.984734 -0.0691955 0)
(0.979448 -0.0697422 0)
(0.973876 -0.0704444 0)
(0.966848 -0.0706172 0)
(0.958021 -0.0695493 0)
(0.950712 -0.0671002 0)
(0.949274 -0.0642558 0)
(0.951969 -0.061658 0)
(0.953839 -0.0589958 0)
(0.953892 -0.0564829 0)
(0.953211 -0.0542945 0)
(0.952328 -0.0524035 0)
(1.01255 -0.00240044 0)
(1.01317 -0.00824705 0)
(1.01426 -0.0131053 0)
(1.01562 -0.0185324 0)
(1.01718 -0.0238473 0)
(1.01872 -0.0294441 0)
(1.02005 -0.0352175 0)
(1.02095 -0.0411973 0)
(1.02119 -0.0472922 0)
(1.02058 -0.0533855 0)
(1.01899 -0.0592997 0)
(1.01636 -0.0648083 0)
(1.01273 -0.069685 0)
(1.00815 -0.0737648 0)
(1.00271 -0.0769838 0)
(0.996611 -0.0793169 0)
(0.990238 -0.0806573 0)
(0.984161 -0.0806864 0)
(0.978921 -0.0790487 0)
(0.974837 -0.0759796 0)
(0.972543 -0.0723707 0)
(0.972761 -0.0693113 0)
(0.973211 -0.0675858 0)
(0.968946 -0.0665249 0)
(0.960266 -0.0652006 0)
(0.952578 -0.0640137 0)
(0.947783 -0.0629559 0)
(0.944614 -0.0617965 0)
(0.94231 -0.0606119 0)
(1.01399 -0.00251646 0)
(1.0147 -0.00861931 0)
(1.01593 -0.0136889 0)
(1.0175 -0.0193517 0)
(1.01933 -0.0248937 0)
(1.02119 -0.0307583 0)
(1.02291 -0.0368552 0)
(1.02423 -0.0432545 0)
(1.02491 -0.0498955 0)
(1.02472 -0.0566867 0)
(1.02346 -0.0634653 0)
(1.02099 -0.0700233 0)
(1.01724 -0.0761423 0)
(1.01225 -0.0816031 0)
(1.00621 -0.0861731 0)
(0.999436 -0.0896007 0)
(0.992269 -0.0917334 0)
(0.984948 -0.0928115 0)
(0.977526 -0.093602 0)
(0.969829 -0.0946776 0)
(0.961229 -0.095579 0)
(0.951078 -0.0952662 0)
(0.941129 -0.0930501 0)
(0.935853 -0.0896623 0)
(0.936063 -0.0864239 0)
(0.936806 -0.0832063 0)
(0.935649 -0.0799543 0)
(0.933813 -0.0770894 0)
(0.931988 -0.0745943 0)
(1.01535 -0.00261806 0)
(1.01613 -0.00894018 0)
(1.0175 -0.0141859 0)
(1.01926 -0.0200382 0)
(1.02134 -0.0257505 0)
(1.02352 -0.0318114 0)
(1.02562 -0.0381448 0)
(1.02739 -0.0448607 0)
(1.02856 -0.051937 0)
(1.02887 -0.0593289 0)
(1.02805 -0.0669181 0)
(1.0259 -0.074525 0)
(1.0223 -0.0818998 0)
(1.01729 -0.0887256 0)
(1.01099 -0.0946851 0)
(1.00357 -0.0995671 0)
(0.99521 -0.103312 0)
(0.986356 -0.105828 0)
(0.977732 -0.106605 0)
(0.970082 -0.105089 0)
(0.964062 -0.101725 0)
(0.96074 -0.0979545 0)
(0.959428 -0.0953092 0)
(0.955201 -0.0938578 0)
(0.945539 -0.0921616 0)
(0.935416 -0.0902945 0)
(0.928737 -0.0887225 0)
(0.924254 -0.0870195 0)
(0.920811 -0.0852428 0)
(1.01662 -0.00270665 0)
(1.01747 -0.00921546 0)
(1.01896 -0.0146076 0)
(1.02089 -0.0206108 0)
(1.02321 -0.0264464 0)
(1.02569 -0.0326432 0)
(1.02817 -0.0391371 0)
(1.03039 -0.0460771 0)
(1.03208 -0.0534861 0)
(1.03296 -0.0613768 0)
(1.03271 -0.0696786 0)
(1.03109 -0.0782352 0)
(1.02795 -0.0867933 0)
(1.02317 -0.0950357 0)
(1.01672 -0.102651 0)
(1.00871 -0.109355 0)
(0.999491 -0.114822 0)
(0.989621 -0.118721 0)
(0.979507 -0.12117 0)
(0.969022 -0.123139 0)
(0.957742 -0.125226 0)
(0.945187 -0.126449 0)
(0.931878 -0.125268 0)
(0.921638 -0.121682 0)
(0.91803 -0.117641 0)
(0.917405 -0.113812 0)
(0.914994 -0.109688 0)
(0.911595 -0.105902 0)
(0.908467 -0.102619 0)
(1.0178 -0.0027835 0)
(1.01871 -0.00945022 0)
(1.02031 -0.0149635 0)
(1.0224 -0.0210863 0)
(1.02493 -0.0270076 0)
(1.0277 -0.0332918 0)
(1.03053 -0.0398836 0)
(1.03319 -0.0469678 0)
(1.03543 -0.054612 0)
(1.03693 -0.0628851 0)
(1.03737 -0.0717686 0)
(1.03647 -0.0811565 0)
(1.03395 -0.0908488 0)
(1.02958 -0.100562 0)
(1.02326 -0.10993 0)
(1.01511 -0.118509 0)
(1.00539 -0.125882 0)
(0.994451 -0.131771 0)
(0.982733 -0.135908 0)
(0.970996 -0.137632 0)
(0.960369 -0.136347 0)
(0.952289 -0.132862 0)
(0.947479 -0.129497 0)
(0.942272 -0.127812 0)
(0.931448 -0.126226 0)
(0.917783 -0.123727 0)
(0.907763 -0.121447 0)
(0.901236 -0.119085 0)
(0.896083 -0.11644 0)
(1.01889 -0.00284989 0)
(1.01985 -0.00964929 0)
(1.02155 -0.0152626 0)
(1.02378 -0.0214799 0)
(1.0265 -0.0274578 0)
(1.02953 -0.0337921 0)
(1.03269 -0.0404316 0)
(1.03578 -0.047592 0)
(1.03855 -0.0553808 0)
(1.04071 -0.0639218 0)
(1.04191 -0.0732612 0)
(1.04181 -0.0833667 0)
(1.04006 -0.0941042 0)
(1.03638 -0.105213 0)
(1.03059 -0.116295 0)
(1.02263 -0.126876 0)
(1.01259 -0.136523 0)
(1.00079 -0.144797 0)
(0.987776 -0.151218 0)
(0.973938 -0.155934 0)
(0.959193 -0.160071 0)
(0.943295 -0.163859 0)
(0.925901 -0.165292 0)
(0.909308 -0.16258 0)
(0.899343 -0.15768 0)
(0.895999 -0.153025 0)
(0.89215 -0.147919 0)
(0.886427 -0.142721 0)
(0.881231 -0.13823 0)
(1.01989 -0.00290717 0)
(1.0209 -0.00981752 0)
(1.02269 -0.0155137 0)
(1.02504 -0.0218059 0)
(1.02793 -0.0278184 0)
(1.03118 -0.0341752 0)
(1.03465 -0.0408238 0)
(1.03814 -0.0480044 0)
(1.04143 -0.0558606 0)
(1.04424 -0.0645699 0)
(1.04621 -0.0742473 0)
(1.04699 -0.0849363 0)
(1.04618 -0.0965669 0)
(1.04346 -0.108931 0)
(1.03849 -0.121684 0)
(1.03103 -0.134364 0)
(1.02108 -0.146444 0)
(1.00893 -0.157341 0)
(0.994967 -0.166437 0)
(0.979651 -0.17307 0)
(0.964133 -0.176239 0)
(0.950255 -0.175384 0)
(0.939714 -0.172256 0)
(0.931388 -0.170336 0)
(0.919053 -0.169593 0)
(0.90094 -0.167104 0)
(0.885015 -0.163884 0)
(0.8748 -0.160775 0)
(0.866904 -0.156943 0)
(1.02081 -0.0029566 0)
(1.02186 -0.00995944 0)
(1.02373 -0.0157244 0)
(1.02619 -0.0220763 0)
(1.02923 -0.0281076 0)
(1.03268 -0.0344672 0)
(1.03642 -0.0410965 0)
(1.04027 -0.0482542 0)
(1.04405 -0.0561159 0)
(1.04748 -0.064907 0)
(1.05024 -0.0748059 0)
(1.05195 -0.0859283 0)
(1.05223 -0.0982815 0)
(1.05063 -0.111747 0)
(1.04672 -0.126064 0)
(1.04014 -0.140783 0)
(1.03078 -0.155329 0)
(1.0187 -0.169091 0)
(1.00411 -0.181362 0)
(0.987319 -0.191506 0)
(0.968757 -0.199928 0)
(0.948573 -0.207785 0)
(0.926283 -0.214036 0)
(0.902296 -0.215002 0)
(0.882638 -0.210291 0)
(0.873 -0.204425 0)
(0.86689 -0.19845 0)
(0.857832 -0.191335 0)
(0.848988 -0.184862 0)
(1.02166 -0.00299927 0)
(1.02275 -0.010079 0)
(1.02469 -0.0159014 0)
(1.02724 -0.0223013 0)
(1.03041 -0.0283403 0)
(1.03404 -0.0346896 0)
(1.03801 -0.0412797 0)
(1.04219 -0.0483828 0)
(1.04642 -0.0562011 0)
(1.05044 -0.0649995 0)
(1.05397 -0.0750115 0)
(1.05665 -0.0864259 0)
(1.05804 -0.0993376 0)
(1.05767 -0.113726 0)
(1.05505 -0.129418 0)
(1.04972 -0.146026 0)
(1.04136 -0.16302 0)
(1.02983 -0.179788 0)
(1.01521 -0.195541 0)
(0.997685 -0.209274 0)
(0.97807 -0.219736 0)
(0.958242 -0.225238 0)
(0.940235 -0.225316 0)
(0.925428 -0.223679 0)
(0.910164 -0.224461 0)
(0.887537 -0.224156 0)
(0.862367 -0.220411 0)
(0.844764 -0.21637 0)
(0.83224 -0.21127 0)
(1.02245 -0.00303612 0)
(1.02356 -0.0101796 0)
(1.02557 -0.0160502 0)
(1.02819 -0.0224891 0)
(1.03149 -0.0285284 0)
(1.03527 -0.0348591 0)
(1.03945 -0.0413965 0)
(1.04392 -0.048423 0)
(1.04856 -0.0561606 0)
(1.05313 -0.0649056 0)
(1.0574 -0.0749396 0)
(1.061 -0.0865224 0)
(1.06352 -0.0998325 0)
(1.06447 -0.114941 0)
(1.06332 -0.131779 0)
(1.05949 -0.150073 0)
(1.05252 -0.16937 0)
(1.04211 -0.189073 0)
(1.02811 -0.20838 0)
(1.01043 -0.226251 0)
(0.989288 -0.241976 0)
(0.965063 -0.256345 0)
(0.937437 -0.270106 0)
(0.905844 -0.279742 0)
(0.873686 -0.279661 0)
(0.851253 -0.273033 0)
(0.839519 -0.266362 0)
(0.826219 -0.257842 0)
(0.810908 -0.248383 0)
(1.02317 -0.00306795 0)
(1.02431 -0.0102642 0)
(1.02638 -0.0161758 0)
(1.02907 -0.0226462 0)
(1.03247 -0.0286811 0)
(1.03637 -0.0349885 0)
(1.04074 -0.041465 0)
(1.04548 -0.0484005 0)
(1.05047 -0.0560308 0)
(1.05556 -0.064677 0)
(1.0605 -0.0746604 0)
(1.065 -0.086304 0)
(1.06863 -0.0998609 0)
(1.07093 -0.11549 0)
(1.07134 -0.133239 0)
(1.06921 -0.152962 0)
(1.06397 -0.174311 0)
(1.05516 -0.196771 0)
(1.04238 -0.219637 0)
(1.0253 -0.241933 0)
(1.00406 -0.262307 0)
(0.979772 -0.278532 0)
(0.95431 -0.287566 0)
(0.92999 -0.289773 0)
(0.908371 -0.292462 0)
(0.881825 -0.297657 0)
(0.845461 -0.296954 0)
(0.813463 -0.291986 0)
(0.792227 -0.286162 0)
(1.02383 -0.00309544 0)
(1.025 -0.0103353 0)
(1.02712 -0.0162819 0)
(1.02986 -0.0227781 0)
(1.03336 -0.0288059 0)
(1.03737 -0.0350878 0)
(1.04189 -0.0414988 0)
(1.04686 -0.0483353 0)
(1.05218 -0.0558408 0)
(1.05773 -0.0643557 0)
(1.06329 -0.0742321 0)
(1.06862 -0.0858453 0)
(1.07334 -0.0995155 0)
(1.07698 -0.115484 0)
(1.07896 -0.133912 0)
(1.07864 -0.154777 0)
(1.07539 -0.177869 0)
(1.06857 -0.2028 0)
(1.05761 -0.228981 0)
(1.04199 -0.255525 0)
(1.02141 -0.281194 0)
(0.995599 -0.305248 0)
(0.963935 -0.329059 0)
(0.925849 -0.352417 0)
(0.881766 -0.366629 0)
(0.839722 -0.364985 0)
(0.812956 -0.357595 0)
(0.793672 -0.349891 0)
(0.768802 -0.337501 0)
(1.02443 -0.00311918 0)
(1.02562 -0.010395 0)
(1.02778 -0.0163719 0)
(1.03057 -0.0228892 0)
(1.03416 -0.0289085 0)
(1.03826 -0.0351644 0)
(1.04292 -0.0415082 0)
(1.04809 -0.0482429 0)
(1.0537 -0.0556133 0)
(1.05965 -0.0639742 0)
(1.0658 -0.0737019 0)
(1.0719 -0.0852125 0)
(1.07764 -0.0988872 0)
(1.08255 -0.11504 0)
(1.0861 -0.133929 0)
(1.08764 -0.155656 0)
(1.08649 -0.180151 0)
(1.08198 -0.207184 0)
(1.07333 -0.236313 0)
(1.05985 -0.266893 0)
(1.04095 -0.297979 0)
(1.01628 -0.327728 0)
(0.986545 -0.352412 0)
(0.953815 -0.367148 0)
(0.921358 -0.374248 0)
(0.88895 -0.386437 0)
(0.844017 -0.398099 0)
(0.789728 -0.395989 0)
(0.749318 -0.389857 0)
(1.02497 -0.0031397 0)
(1.02618 -0.0104452 0)
(1.02839 -0.0164484 0)
(1.03121 -0.022983 0)
(1.03487 -0.0289934 0)
(1.03905 -0.0352239 0)
(1.04384 -0.0415013 0)
(1.04917 -0.0481344 0)
(1.05503 -0.0553651 0)
(1.06136 -0.0635579 0)
(1.06802 -0.0731082 0)
(1.07484 -0.0844631 0)
(1.08152 -0.0980564 0)
(1.08764 -0.114262 0)
(1.09269 -0.133422 0)
(1.09606 -0.155749 0)
(1.09708 -0.181305 0)
(1.09504 -0.210029 0)
(1.08908 -0.24166 0)
(1.07833 -0.27576 0)
(1.06216 -0.311652 0)
(1.03945 -0.347924 0)
(1.0083 -0.384056 0)
(0.967746 -0.4231 0)
(0.916927 -0.462885 0)
(0.855265 -0.484169 0)
(0.798549 -0.480754 0)
(0.762589 -0.474751 0)
(0.727323 -0.464279 0)
(1.02546 -0.00315744 0)
(1.02668 -0.0104875 0)
(1.02892 -0.0165137 0)
(1.03179 -0.0230625 0)
(1.03551 -0.0290641 0)
(1.03975 -0.0352704 0)
(1.04465 -0.0414835 0)
(1.05013 -0.0480183 0)
(1.05621 -0.0551091 0)
(1.06286 -0.0631271 0)
(1.06999 -0.0724823 0)
(1.07744 -0.083645 0)
(1.08499 -0.0970914 0)
(1.09223 -0.113246 0)
(1.09871 -0.132518 0)
(1.10385 -0.15522 0)
(1.107 -0.181522 0)
(1.10749 -0.211524 0)
(1.10445 -0.245168 0)
(1.09687 -0.282201 0)
(1.08404 -0.322377 0)
(1.06465 -0.365018 0)
(1.03694 -0.407799 0)
(1.00178 -0.445228 0)
(0.961185 -0.469487 0)
(0.917847 -0.487424 0)
(0.867396 -0.519112 0)
(0.79224 -0.539297 0)
(0.712133 -0.533511 0)
(1.02589 -0.00317275 0)
(1.02713 -0.010523 0)
(1.02941 -0.0165693 0)
(1.0323 -0.02313 0)
(1.03608 -0.0291233 0)
(1.04037 -0.0353069 0)
(1.04536 -0.0414593 0)
(1.05097 -0.0479005 0)
(1.05724 -0.0548547 0)
(1.06417 -0.0626973 0)
(1.07171 -0.0718486 0)
(1.07974 -0.0827957 0)
(1.08806 -0.0960473 0)
(1.09634 -0.112072 0)
(1.10414 -0.131329 0)
(1.11095 -0.154215 0)
(1.11616 -0.180996 0)
(1.11912 -0.211889 0)
(1.11906 -0.247043 0)
(1.11497 -0.28642 0)
(1.10596 -0.330001 0)
(1.09102 -0.377628 0)
(1.06753 -0.428116 0)
(1.03167 -0.481831 0)
(0.982517 -0.545962 0)
(0.916757 -0.615968 0)
(0.827171 -0.650337 0)
(0.7423 -0.64557 0)
(0.685323 -0.642601 0)
(1.02628 -0.00318597 0)
(1.02753 -0.010553 0)
(1.02984 -0.0166169 0)
(1.03276 -0.0231875 0)
(1.03659 -0.0291733 0)
(1.04093 -0.0353358 0)
(1.04599 -0.0414317 0)
(1.0517 -0.0477853 0)
(1.05814 -0.0546088 0)
(1.06531 -0.06228 0)
(1.07321 -0.0712257 0)
(1.08175 -0.081945 0)
(1.09077 -0.0949707 0)
(1.09999 -0.110807 0)
(1.10901 -0.129956 0)
(1.11736 -0.152875 0)
(1.1245 -0.179913 0)
(1.12983 -0.211374 0)
(1.13267 -0.24756 0)
(1.13218 -0.288684 0)
(1.12734 -0.334879 0)
(1.11707 -0.386492 0)
(1.09952 -0.444073 0)
(1.07176 -0.505795 0)
(1.03312 -0.562919 0)
(0.98393 -0.602461 0)
(0.926473 -0.645247 0)
(0.843198 -0.720679 0)
(0.707877 -0.74737 0)
(1.02663 -0.00319736 0)
(1.02789 -0.0105783 0)
(1.03022 -0.0166576 0)
(1.03317 -0.0232364 0)
(1.03704 -0.0292156 0)
(1.04141 -0.0353588 0)
(1.04655 -0.041403 0)
(1.05235 -0.0476754 0)
(1.05892 -0.0543758 0)
(1.06631 -0.0618832 0)
(1.07452 -0.0706269 0)
(1.0835 -0.0811152 0)
(1.09314 -0.0938977 0)
(1.1032 -0.109508 0)
(1.11332 -0.12848 0)
(1.12307 -0.151316 0)
(1.132 -0.178433 0)
(1.13956 -0.210202 0)
(1.14513 -0.247009 0)
(1.14813 -0.289289 0)
(1.14767 -0.337427 0)
(1.14235 -0.391789 0)
(1.13148 -0.453664 0)
(1.1123 -0.523846 0)
(1.075 -0.602685 0)
(1.01875 -0.707089 0)
(0.943455 -0.841617 0)
(0.802909 -0.913824 0)
(0.631122 -0.902781 0)
(1.02694 -0.00320715 0)
(1.02821 -0.0105997 0)
(1.03056 -0.0166924 0)
(1.03353 -0.0232782 0)
(1.03743 -0.0292515 0)
(1.04184 -0.0353773 0)
(1.04703 -0.0413745 0)
(1.05291 -0.0475726 0)
(1.0596 -0.0541588 0)
(1.06717 -0.061512 0)
(1.07565 -0.0700618 0)
(1.08502 -0.0803229 0)
(1.09521 -0.0928567 0)
(1.10601 -0.108219 0)
(1.11711 -0.126968 0)
(1.12813 -0.14964 0)
(1.13868 -0.1767 0)
(1.14829 -0.208578 0)
(1.15639 -0.245699 0)
(1.16259 -0.288604 0)
(1.16645 -0.337998 0)
(1.16642 -0.394268 0)
(1.16154 -0.458753 0)
(1.15199 -0.535925 0)
(1.13243 -0.626404 0)
(1.09715 -0.712874 0)
(1.04192 -0.776863 0)
(0.967861 -0.889031 0)
(0.798297 -1.07176 0)
(1.02721 -0.00321553 0)
(1.0285 -0.0106178 0)
(1.03086 -0.0167221 0)
(1.03385 -0.0233139 0)
(1.03778 -0.0292821 0)
(1.04222 -0.0353923 0)
(1.04746 -0.0413473 0)
(1.05339 -0.047478 0)
(1.06019 -0.0539592 0)
(1.06791 -0.0611694 0)
(1.07662 -0.0695364 0)
(1.08634 -0.079579 0)
(1.097 -0.0918667 0)
(1.10845 -0.106971 0)
(1.12042 -0.12547 0)
(1.13258 -0.147922 0)
(1.14457 -0.174827 0)
(1.15603 -0.206659 0)
(1.16647 -0.243873 0)
(1.17553 -0.287 0)
(1.18331 -0.336964 0)
(1.18863 -0.394473 0)
(1.18981 -0.460344 0)
(1.18951 -0.539393 0)
(1.18645 -0.63618 0)
(1.1582 -0.74392 0)
(1.10392 -0.903423 0)
(1.04335 -1.201 0)
(0.749578 -1.34246 0)
(0.997877 -0.00263697 0)
(0.998168 -0.00251607 0)
(0.998378 -0.0023889 0)
(0.998512 -0.00225696 0)
(0.998568 -0.00212144 0)
(0.998536 -0.00198317 0)
(0.998396 -0.00184303 0)
(0.998121 -0.00170211 0)
(0.997671 -0.00156183 0)
(0.997004 -0.0014241 0)
(0.996077 -0.00129134 0)
(0.994856 -0.00116653 0)
(0.993323 -0.00105293 0)
(0.991493 -0.000953735 0)
(0.989419 -0.000871411 0)
(0.987199 -0.00080702 0)
(0.984977 -0.000759517 0)
(0.982929 -0.000725315 0)
(0.98124 -0.000698305 0)
(0.998876 -0.00493009 0)
(0.998415 -0.00487483 0)
(0.998064 -0.00482071 0)
(0.997809 -0.0047666 0)
(0.997648 -0.00471002 0)
(0.997587 -0.00464884 0)
(0.997649 -0.00458095 0)
(0.997868 -0.00450385 0)
(0.998289 -0.00441463 0)
(0.998967 -0.00430993 0)
(0.999959 -0.00418603 0)
(1.00131 -0.00403909 0)
(1.00304 -0.00386569 0)
(1.00513 -0.00366351 0)
(1.00751 -0.00343234 0)
(1.01004 -0.00317503 0)
(1.01253 -0.00289818 0)
(1.01474 -0.00261232 0)
(1.01645 -0.00233113 0)
(0.99406 -0.0117548 0)
(0.994392 -0.011363 0)
(0.994591 -0.0109704 0)
(0.994672 -0.0105763 0)
(0.99464 -0.0101813 0)
(0.994485 -0.00978492 0)
(0.994186 -0.00938699 0)
(0.993711 -0.00898776 0)
(0.99302 -0.00858812 0)
(0.992066 -0.00818973 0)
(0.990811 -0.00779502 0)
(0.989229 -0.00740707 0)
(0.987322 -0.0070292 0)
(0.985137 -0.00666433 0)
(0.982774 -0.00631404 0)
(0.98039 -0.00597769 0)
(0.978188 -0.00565168 0)
(0.976393 -0.00532931 0)
(0.975214 -0.00500153 0)
(0.990519 -0.0109351 0)
(0.990033 -0.0106013 0)
(0.989643 -0.0102508 0)
(0.989327 -0.00988653 0)
(0.989076 -0.00950846 0)
(0.988902 -0.00911753 0)
(0.988829 -0.00871521 0)
(0.988899 -0.00830325 0)
(0.989168 -0.00788357 0)
(0.9897 -0.00745807 0)
(0.990561 -0.00702837 0)
(0.991802 -0.00659547 0)
(0.993443 -0.00615968 0)
(0.995453 -0.0057206 0)
(0.997737 -0.00527768 0)
(1.00013 -0.00483079 0)
(1.0024 -0.00438111 0)
(1.0043 -0.00393155 0)
(1.00559 -0.00348662 0)
(0.983487 -0.0202222 0)
(0.983498 -0.0194923 0)
(0.983396 -0.0187625 0)
(0.983203 -0.0180328 0)
(0.982932 -0.0173054 0)
(0.982583 -0.0165816 0)
(0.982144 -0.0158625 0)
(0.981593 -0.0151492 0)
(0.980898 -0.0144425 0)
(0.980019 -0.013743 0)
(0.978913 -0.0130513 0)
(0.977545 -0.012368 0)
(0.975907 -0.0116943 0)
(0.974027 -0.0110316 0)
(0.971992 -0.0103815 0)
(0.969949 -0.00974477 0)
(0.968097 -0.00912059 0)
(0.966657 -0.00850516 0)
(0.965825 -0.0078916 0)
(0.976761 -0.0232703 0)
(0.976212 -0.0227222 0)
(0.975762 -0.0221537 0)
(0.975391 -0.02157 0)
(0.975096 -0.020972 0)
(0.974884 -0.0203606 0)
(0.974778 -0.0197371 0)
(0.974812 -0.0191026 0)
(0.975033 -0.0184575 0)
(0.975495 -0.0178019 0)
(0.976255 -0.0171342 0)
(0.97736 -0.0164511 0)
(0.97883 -0.0157463 0)
(0.98064 -0.0150105 0)
(0.982696 -0.0142319 0)
(0.984832 -0.0133976 0)
(0.986817 -0.012497 0)
(0.988384 -0.011525 0)
(0.989288 -0.0104851 0)
(0.969024 -0.0335051 0)
(0.968668 -0.0324361 0)
(0.968256 -0.031349 0)
(0.967806 -0.0302443 0)
(0.967326 -0.0291246 0)
(0.966814 -0.0279911 0)
(0.966257 -0.0268443 0)
(0.965632 -0.0256842 0)
(0.964902 -0.0245106 0)
(0.964014 -0.0233232 0)
(0.962906 -0.0221224 0)
(0.961513 -0.0209107 0)
(0.95978 -0.019694 0)
(0.957694 -0.0184826 0)
(0.9553 -0.0172915 0)
(0.952734 -0.0161385 0)
(0.950221 -0.0150408 0)
(0.948052 -0.0140094 0)
(0.946531 -0.013044 0)
(0.960208 -0.039749 0)
(0.959308 -0.0389604 0)
(0.958512 -0.0381392 0)
(0.9578 -0.0372908 0)
(0.957164 -0.0364147 0)
(0.956607 -0.0355112 0)
(0.95614 -0.0345813 0)
(0.955787 -0.033626 0)
(0.955584 -0.0326465 0)
(0.955584 -0.031644 0)
(0.955851 -0.0306183 0)
(0.956459 -0.0295668 0)
(0.957472 -0.0284825 0)
(0.958924 -0.027352 0)
(0.960779 -0.0261548 0)
(0.962907 -0.0248642 0)
(0.965067 -0.0234525 0)
(0.966921 -0.0218994 0)
(0.968103 -0.0202019 0)
(0.951436 -0.0507717 0)
(0.950553 -0.0492305 0)
(0.949649 -0.0476485 0)
(0.94874 -0.0460265 0)
(0.947835 -0.0443683 0)
(0.946934 -0.0426758 0)
(0.946028 -0.0409504 0)
(0.9451 -0.0391934 0)
(0.944115 -0.0374058 0)
(0.943021 -0.0355885 0)
(0.941744 -0.0337431 0)
(0.940185 -0.0318734 0)
(0.938238 -0.0299878 0)
(0.93581 -0.0281024 0)
(0.932864 -0.0262432 0)
(0.929475 -0.0244459 0)
(0.925868 -0.0227515 0)
(0.922439 -0.0211954 0)
(0.919692 -0.0197928 0)
(0.940542 -0.0594436 0)
(0.939031 -0.0582707 0)
(0.937631 -0.0570474 0)
(0.936323 -0.0557813 0)
(0.935101 -0.0544732 0)
(0.933966 -0.0531254 0)
(0.932926 -0.0517407 0)
(0.931996 -0.0503224 0)
(0.931205 -0.0488739 0)
(0.930599 -0.0473988 0)
(0.930247 -0.0459004 0)
(0.930243 -0.0443797 0)
(0.930703 -0.042833 0)
(0.931741 -0.0412478 0)
(0.933426 -0.0395979 0)
(0.93572 -0.0378402 0)
(0.938409 -0.0359172 0)
(0.941072 -0.0337692 0)
(0.943119 -0.0313559 0)
(0.930303 -0.072413 0)
(0.92871 -0.0703367 0)
(0.927132 -0.0681915 0)
(0.925587 -0.0659796 0)
(0.924088 -0.0637038 0)
(0.922637 -0.0613646 0)
(0.921232 -0.0589616 0)
(0.919862 -0.0564945 0)
(0.918501 -0.0539623 0)
(0.917104 -0.0513637 0)
(0.915598 -0.0486973 0)
(0.913872 -0.0459625 0)
(0.911772 -0.0431623 0)
(0.909115 -0.0403082 0)
(0.905725 -0.0374268 0)
(0.901515 -0.0345664 0)
(0.896595 -0.0317986 0)
(0.891378 -0.0292072 0)
(0.886604 -0.0268626 0)
(0.918086 -0.0835036 0)
(0.915704 -0.0817451 0)
(0.913452 -0.0798939 0)
(0.911313 -0.0779612 0)
(0.909277 -0.0759527 0)
(0.907343 -0.0738756 0)
(0.905513 -0.0717383 0)
(0.903795 -0.0695494 0)
(0.902208 -0.0673175 0)
(0.900781 -0.0650517 0)
(0.899569 -0.0627615 0)
(0.898664 -0.0604564 0)
(0.898205 -0.0581444 0)
(0.898379 -0.0558275 0)
(0.899394 -0.0534937 0)
(0.901401 -0.0511055 0)
(0.904363 -0.0485898 0)
(0.907911 -0.0458395 0)
(0.911264 -0.0427408 0)
(0.905653 -0.0996956 0)
(0.903027 -0.0968945 0)
(0.900455 -0.0939864 0)
(0.897962 -0.0909762 0)
(0.895565 -0.0878647 0)
(0.893273 -0.0846495 0)
(0.891089 -0.081328 0)
(0.889009 -0.0778976 0)
(0.88702 -0.0743563 0)
(0.885092 -0.0707026 0)
(0.883175 -0.0669352 0)
(0.88118 -0.0630527 0)
(0.878962 -0.0590547 0)
(0.8763 -0.0549449 0)
(0.872904 -0.0507385 0)
(0.86847 -0.0464769 0)
(0.862816 -0.0422434 0)
(0.856123 -0.0381701 0)
(0.849168 -0.0344145 0)
(0.891944 -0.113832 0)
(0.888314 -0.11115 0)
(0.884863 -0.108274 0)
(0.881575 -0.105233 0)
(0.878442 -0.102043 0)
(0.87546 -0.0987284 0)
(0.872633 -0.0953115 0)
(0.869965 -0.0918174 0)
(0.867468 -0.0882708 0)
(0.865161 -0.0846961 0)
(0.863079 -0.0811175 0)
(0.861285 -0.077559 0)
(0.859896 -0.0740445 0)
(0.859101 -0.0705959 0)
(0.859183 -0.0672274 0)
(0.860484 -0.0639307 0)
(0.863274 -0.0606498 0)
(0.867485 -0.0572545 0)
(0.872391 -0.0535395 0)
(0.876675 -0.134149 0)
(0.872432 -0.130184 0)
(0.868326 -0.126046 0)
(0.86439 -0.121734 0)
(0.860655 -0.117258 0)
(0.857145 -0.112618 0)
(0.853873 -0.107815 0)
(0.850846 -0.102853 0)
(0.848061 -0.0977373 0)
(0.845503 -0.0924717 0)
(0.843143 -0.0870618 0)
(0.840919 -0.0815124 0)
(0.838724 -0.0758279 0)
(0.836367 -0.0700124 0)
(0.833538 -0.0640742 0)
(0.829786 -0.0580383 0)
(0.824584 -0.0519773 0)
(0.817603 -0.046044 0)
(0.809206 -0.04049 0)
(0.860405 -0.152969 0)
(0.854781 -0.148814 0)
(0.849454 -0.144231 0)
(0.844432 -0.139311 0)
(0.839722 -0.134091 0)
(0.835327 -0.128625 0)
(0.831262 -0.122967 0)
(0.827535 -0.117174 0)
(0.824155 -0.111305 0)
(0.821134 -0.105419 0)
(0.818487 -0.0995795 0)
(0.816248 -0.0938484 0)
(0.814486 -0.0882895 0)
(0.813334 -0.0829649 0)
(0.813045 -0.0779314 0)
(0.814024 -0.0732325 0)
(0.816808 -0.068863 0)
(0.821814 -0.064725 0)
(0.828802 -0.0605503 0)
(0.841565 -0.178991 0)
(0.834618 -0.173059 0)
(0.82799 -0.166802 0)
(0.821749 -0.160173 0)
(0.815939 -0.153212 0)
(0.81063 -0.145945 0)
(0.80585 -0.138402 0)
(0.80163 -0.130626 0)
(0.797984 -0.12266 0)
(0.794914 -0.114545 0)
(0.792405 -0.106317 0)
(0.790414 -0.0980086 0)
(0.788862 -0.0896411 0)
(0.787593 -0.0812292 0)
(0.786333 -0.0727823 0)
(0.7846 -0.0643063 0)
(0.781635 -0.0558558 0)
(0.776513 -0.047567 0)
(0.768588 -0.0397453 0)
(0.821524 -0.205173 0)
(0.812356 -0.198689 0)
(0.803762 -0.191279 0)
(0.795742 -0.183153 0)
(0.788417 -0.174413 0)
(0.781798 -0.165149 0)
(0.775952 -0.155484 0)
(0.770907 -0.145528 0)
(0.766689 -0.135405 0)
(0.763301 -0.125242 0)
(0.760741 -0.115178 0)
(0.758999 -0.105357 0)
(0.758081 -0.0959331 0)
(0.75803 -0.0870675 0)
(0.75899 -0.0789185 0)
(0.761288 -0.0716528 0)
(0.765552 -0.0653633 0)
(0.772585 -0.0600832 0)
(0.783141 -0.0556356 0)
(0.798322 -0.239964 0)
(0.786658 -0.230978 0)
(0.775505 -0.221155 0)
(0.765246 -0.210503 0)
(0.755866 -0.199014 0)
(0.747567 -0.186847 0)
(0.740411 -0.174091 0)
(0.734484 -0.160901 0)
(0.729822 -0.147424 0)
(0.72646 -0.133814 0)
(0.72439 -0.120215 0)
(0.723584 -0.106759 0)
(0.723968 -0.0935495 0)
(0.725409 -0.0806605 0)
(0.727659 -0.0681412 0)
(0.730268 -0.0559596 0)
(0.732332 -0.0441744 0)
(0.73264 -0.0328619 0)
(0.729053 -0.0222211 0)
(0.774247 -0.277391 0)
(0.758363 -0.267283 0)
(0.74384 -0.255481 0)
(0.730281 -0.241992 0)
(0.718184 -0.227267 0)
(0.707583 -0.211396 0)
(0.698665 -0.194658 0)
(0.691501 -0.177285 0)
(0.686184 -0.159527 0)
(0.682719 -0.141647 0)
(0.681109 -0.123919 0)
(0.681306 -0.106629 0)
(0.683242 -0.0900842 0)
(0.686842 -0.0746229 0)
(0.692081 -0.0605791 0)
(0.699045 -0.0484282 0)
(0.708406 -0.0384244 0)
(0.72076 -0.0309086 0)
(0.738174 -0.0262227 0)
(0.746163 -0.325301 0)
(0.726308 -0.312318 0)
(0.706848 -0.296765 0)
(0.689305 -0.279542 0)
(0.673549 -0.260349 0)
(0.659989 -0.239644 0)
(0.648765 -0.217719 0)
(0.64008 -0.194891 0)
(0.633957 -0.171526 0)
(0.630494 -0.147973 0)
(0.629669 -0.124576 0)
(0.63146 -0.101678 0)
(0.635786 -0.0795964 0)
(0.642513 -0.0585873 0)
(0.651395 -0.038924 0)
(0.662131 -0.020498 0)
(0.67332 -0.00353726 0)
(0.684286 0.0120456 0)
(0.691227 0.0265604 0)
(0.719451 -0.379604 0)
(0.691193 -0.363853 0)
(0.665949 -0.345424 0)
(0.642692 -0.323341 0)
(0.622251 -0.298694 0)
(0.604877 -0.271936 0)
(0.590876 -0.243454 0)
(0.580243 -0.213841 0)
(0.57321 -0.183522 0)
(0.569706 -0.152958 0)
(0.569782 -0.122609 0)
(0.573385 -0.0929295 0)
(0.580451 -0.0644144 0)
(0.590858 -0.0376593 0)
(0.604512 -0.0131277 0)
(0.620924 0.00791795 0)
(0.641467 0.0251244 0)
(0.665078 0.0372461 0)
(0.695707 0.0423169 0)
(0.686457 -0.445804 0)
(0.651602 -0.427353 0)
(0.618204 -0.402973 0)
(0.588133 -0.374595 0)
(0.562147 -0.34297 0)
(0.540546 -0.308349 0)