/*--------------------------------*- C++ -*----------------------------------*\
  =========                 |
  \\      /  F ield         | OpenFOAM: The Open Source CFD Toolbox
   \\    /   O peration     | Website:  https://openfoam.org
    \\  /    A nd           | Version:  10
     \\/     M anipulation  |
\*---------------------------------------------------------------------------*/
FoamFile
{
    format      ascii;
    class       volVectorField;
    location    "0";
    object      U;
}
// * * * * * * * * * * * * * * * * * * * * * * * * * * * * * * * * * * * * * //

dimensions      [0 1 -1 0 0 0 0];

internalField   nonuniform List<vector> 
18483
(
(0.999999 -0.000215415 0)
(0.999999 -0.00076515 0)
(0.999999 -0.0012033 0)
(0.999998 -0.00165688 0)
(0.999998 -0.0020661 0)
(0.999998 -0.00243842 0)
(0.999998 -0.00275749 0)
(0.999997 -0.00301458 0)
(0.999995 -0.0032039 0)
(0.99999 -0.00332459 0)
(0.999981 -0.00338182 0)
(0.999965 -0.00339035 0)
(0.999938 -0.00337402 0)
(0.999892 -0.00338584 0)
(0.999819 -0.00347677 0)
(0.999702 -0.00366391 0)
(0.999487 -0.00388211 0)
(0.998944 -0.00401231 0)
(0.997527 -0.00394832 0)
(0.994732 -0.00361212 0)
(0.991269 -0.0030883 0)
(0.989242 -0.00260496 0)
(0.98989 -0.00224949 0)
(0.992229 -0.00194642 0)
(0.994686 -0.00166367 0)
(0.99653 -0.00140936 0)
(0.997725 -0.00118748 0)
(0.99845 -0.000997903 0)
(0.99887 -0.000837109 0)
(1.00066 -0.000608169 0)
(1.00067 -0.00215307 0)
(1.00072 -0.00339831 0)
(1.00074 -0.00470611 0)
(1.00076 -0.00590263 0)
(1.00075 -0.00701382 0)
(1.0007 -0.00798852 0)
(1.00061 -0.0087993 0)
(1.00049 -0.00942349 0)
(1.00033 -0.00985651 0)
(1.00016 -0.0101122 0)
(0.999999 -0.010227 0)
(0.999889 -0.0102297 0)
(0.999863 -0.0100618 0)
(0.999923 -0.00963977 0)
(0.999991 -0.00891754 0)
(0.999958 -0.00800156 0)
(0.99985 -0.00710974 0)
(1.00008 -0.00641584 0)
(1.00152 -0.00606899 0)
(1.00439 -0.00603333 0)
(1.00685 -0.00596886 0)
(1.00675 -0.00570146 0)
(1.00451 -0.00542351 0)
(1.00195 -0.00522992 0)
(1.00002 -0.005083 0)
(0.998779 -0.00495297 0)
(0.997999 -0.00482619 0)
(0.997501 -0.00470066 0)
(1.00182 -0.000915219 0)
(1.00189 -0.00323545 0)
(1.00201 -0.00513732 0)
(1.00212 -0.00717452 0)
(1.00221 -0.00908187 0)
(1.00222 -0.0109067 0)
(1.00213 -0.0125604 0)
(1.00194 -0.0139929 0)
(1.00163 -0.0151523 0)
(1.00123 -0.0160104 0)
(1.00078 -0.0165523 0)
(1.00032 -0.0167642 0)
(0.999911 -0.0166548 0)
(0.999569 -0.0162808 0)
(0.999213 -0.0158342 0)
(0.99878 -0.0155843 0)
(0.998253 -0.0155633 0)
(0.997511 -0.0155942 0)
(0.996047 -0.0155045 0)
(0.993089 -0.0151884 0)
(0.988667 -0.0146284 0)
(0.984804 -0.0140386 0)
(0.984033 -0.0136048 0)
(0.986128 -0.0131296 0)
(0.988879 -0.0125085 0)
(0.99099 -0.0118592 0)
(0.992355 -0.0112664 0)
(0.9932 -0.0107592 0)
(0.993725 -0.0103398 0)
(1.00317 -0.00114671 0)
(1.00331 -0.00405201 0)
(1.00355 -0.00647511 0)
(1.00379 -0.00912619 0)
(1.004 -0.011673 0)
(1.00408 -0.0141844 0)
(1.00401 -0.0165409 0)
(1.00372 -0.0186687 0)
(1.00322 -0.020479 0)
(1.00252 -0.0219054 0)
(1.00166 -0.0229043 0)
(1.00069 -0.0234625 0)
(0.999631 -0.0236333 0)
(0.998528 -0.0235384 0)
(0.997433 -0.0232141 0)
(0.996434 -0.0224496 0)
(0.995582 -0.0210807 0)
(0.994936 -0.0193205 0)
(0.995016 -0.017594 0)
(0.99693 -0.0162242 0)
(1.00098 -0.0153236 0)
(1.00466 -0.0146477 0)
(1.0046 -0.0138942 0)
(1.00101 -0.0132317 0)
(0.996894 -0.0128109 0)
(0.99397 -0.0124975 0)
(0.992203 -0.0121904 0)
(0.991165 -0.0118678 0)
(0.990538 -0.0115338 0)
(1.00453 -0.00132952 0)
(1.00476 -0.00469446 0)
(1.00515 -0.00754274 0)
(1.00557 -0.0107193 0)
(1.00595 -0.013842 0)
(1.00618 -0.0170042 0)
(1.00618 -0.0200637 0)
(1.00587 -0.0229251 0)
(1.00524 -0.0254627 0)
(1.00427 -0.027577 0)
(1.00302 -0.029204 0)
(1.00155 -0.0303286 0)
(0.99994 -0.0309649 0)
(0.998304 -0.0311072 0)
(0.99675 -0.0307752 0)
(0.995281 -0.0301719 0)
(0.993813 -0.0296755 0)
(0.992336 -0.0294541 0)
(0.990566 -0.0292724 0)
(0.987417 -0.0288319 0)
(0.981969 -0.0279801 0)
(0.976184 -0.0268935 0)
(0.974187 -0.0259162 0)
(0.976562 -0.0249316 0)
(0.979897 -0.0237329 0)
(0.982079 -0.0224919 0)
(0.983197 -0.0213667 0)
(0.983724 -0.0203944 0)
(0.983954 -0.0195756 0)
(1.00587 -0.00148524 0)
(1.0062 -0.00523645 0)
(1.00676 -0.00844733 0)
(1.00741 -0.0120823 0)
(1.00803 -0.0157211 0)
(1.00848 -0.019487 0)
(1.00864 -0.0232227 0)
(1.00841 -0.026819 0)
(1.00772 -0.030119 0)
(1.00656 -0.0329911 0)
(1.00497 -0.0353284 0)
(1.00303 -0.0370575 0)
(1.00086 -0.03814 0)
(0.998577 -0.0385676 0)
(0.996208 -0.0384097 0)
(0.993813 -0.0377577 0)
(0.991527 -0.0364677 0)
(0.989602 -0.0343656 0)
(0.988588 -0.0317304 0)
(0.98971 -0.0291411 0)
(0.993835 -0.0270865 0)
(0.998506 -0.025633 0)
(0.998727 -0.0243873 0)
(0.993619 -0.0232981 0)
(0.987528 -0.0225903 0)
(0.983359 -0.0220854 0)
(0.980908 -0.0215824 0)
(0.979436 -0.0210541 0)
(0.978503 -0.0205075 0)
(1.00719 -0.00162461 0)
(1.00765 -0.00571534 0)
(1.0084 -0.00924403 0)
(1.0093 -0.013282 0)
(1.01021 -0.017379 0)
(1.01095 -0.0216963 0)
(1.01137 -0.0260718 0)
(1.01129 -0.0303951 0)
(1.01063 -0.0344876 0)
(1.00933 -0.0381836 0)
(1.00743 -0.0413306 0)
(1.005 -0.0438121 0)
(1.00217 -0.0455834 0)
(0.999055 -0.0466624 0)
(0.995766 -0.0470773 0)
(0.992438 -0.0469374 0)
(0.989184 -0.0465761 0)
(0.986037 -0.0464273 0)
(0.98282 -0.0465257 0)
(0.978563 -0.0463531 0)
(0.971937 -0.0453473 0)
(0.964426 -0.0434209 0)
(0.961105 -0.0412123 0)
(0.963743 -0.0391521 0)
(0.967808 -0.037009 0)
(0.969969 -0.0348811 0)
(0.970627 -0.0330045 0)
(0.970638 -0.0313993 0)
(0.970394 -0.0300489 0)
(1.00853 -0.00175056 0)
(1.0091 -0.00614198 0)
(1.01006 -0.00994963 0)
(1.01123 -0.01434 0)
(1.01247 -0.0188395 0)
(1.01356 -0.0236552 0)
(1.01429 -0.0286297 0)
(1.01446 -0.0336627 0)
(1.01394 -0.0385607 0)
(1.01263 -0.0431304 0)
(1.01053 -0.0471805 0)
(1.00773 -0.0505536 0)
(1.00436 -0.0531458 0)
(1.00059 -0.0549047 0)
(0.996596 -0.0558025 0)
(0.992503 -0.0558654 0)
(0.988463 -0.0550593 0)
(0.984723 -0.0531447 0)
(0.981723 -0.0500429 0)
(0.98046 -0.046338 0)
(0.982298 -0.0430403 0)
(0.98611 -0.0409001 0)
(0.986556 -0.0395596 0)
(0.980772 -0.0382496 0)
(0.973168 -0.0371569 0)
(0.968039 -0.0363511 0)
(0.965109 -0.0355401 0)
(0.963265 -0.0346987 0)
(0.96201 -0.0338508 0)
(1.00984 -0.00186237 0)
(1.01053 -0.00651504 0)
(1.0117 -0.0105634 0)
(1.01316 -0.0152567 0)
(1.01475 -0.0201036 0)
(1.01622 -0.0253614 0)
(1.01733 -0.0308843 0)
(1.01785 -0.0365904 0)
(1.01758 -0.0422835 0)
(1.01639 -0.047755 0)
(1.01422 -0.0527799 0)
(1.01113 -0.0571498 0)
(1.00725 -0.0606945 0)
(1.00274 -0.0633236 0)
(0.99777 -0.0650278 0)
(0.992478 -0.0658689 0)
(0.987008 -0.0660598 0)
(0.981434 -0.0660588 0)
(0.975751 -0.0663052 0)
(0.969618 -0.0665961 0)
(0.962027 -0.0660638 0)
(0.953336 -0.0639859 0)
(0.947839 -0.0607671 0)
(0.948902 -0.0576203 0)
(0.952666 -0.0547137 0)
(0.954416 -0.0517779 0)
(0.954369 -0.0491425 0)
(0.953755 -0.046886 0)
(0.952984 -0.0449645 0)
(1.0111 -0.00195882 0)
(1.01191 -0.00683173 0)
(1.01328 -0.0110822 0)
(1.01502 -0.0160296 0)
(1.01697 -0.0211689 0)
(1.01885 -0.026809 0)
(1.0204 -0.0328225 0)
(1.02134 -0.0391564 0)
(1.02141 -0.0456268 0)
(1.02043 -0.0520251 0)
(1.0183 -0.0581025 0)
(1.01501 -0.0636099 0)
(1.01066 -0.0683267 0)
(1.00545 -0.0721042 0)
(0.999614 -0.0748605 0)
(0.993396 -0.0765373 0)
(0.987034 -0.0770658 0)
(0.980798 -0.0762294 0)
(0.975117 -0.0737338 0)
(0.970777 -0.0698091 0)
(0.969067 -0.0655442 0)
(0.970296 -0.0622993 0)
(0.970567 -0.0605698 0)
(0.96515 -0.0591645 0)
(0.956486 -0.0575189 0)
(0.950119 -0.0561809 0)
(0.946495 -0.0549198 0)
(0.944081 -0.0535899 0)
(0.942322 -0.0522788 0)
(1.01228 -0.00203957 0)
(1.01321 -0.00709202 0)
(1.01477 -0.0115072 0)
(1.01679 -0.0166617 0)
(1.01909 -0.0220397 0)
(1.02139 -0.0280026 0)
(1.02341 -0.0344468 0)
(1.02483 -0.0413562 0)
(1.02535 -0.0485709 0)
(1.02472 -0.0558934 0)
(1.02279 -0.0630604 0)
(1.01951 -0.0697874 0)
(1.01496 -0.0757885 0)
(1.00932 -0.0808102 0)
(1.00282 -0.0846669 0)
(0.995686 -0.0872535 0)
(0.988034 -0.088587 0)
(0.979928 -0.0890144 0)
(0.971493 -0.0893004 0)
(0.962887 -0.0899009 0)
(0.953767 -0.0902409 0)
(0.943796 -0.0890917 0)
(0.935374 -0.0857839 0)
(0.932754 -0.0816172 0)
(0.934679 -0.0779207 0)
(0.935652 -0.0742447 0)
(0.934619 -0.0707307 0)
(0.933141 -0.067717 0)
(0.931678 -0.0651107 0)
(1.01339 -0.00210527 0)
(1.01441 -0.00729887 0)
(1.01616 -0.0118439 0)
(1.01844 -0.0171621 0)
(1.0211 -0.0227287 0)
(1.02383 -0.0289563 0)
(1.02635 -0.0357681 0)
(1.0283 -0.0431875 0)
(1.02936 -0.0510851 0)
(1.02923 -0.0592852 0)
(1.0277 -0.0675249 0)
(1.02464 -0.0754972 0)
(1.02006 -0.0828702 0)
(1.01406 -0.0893284 0)
(1.00682 -0.0946392 0)
(0.998547 -0.0986806 0)
(0.989495 -0.101394 0)
(0.980029 -0.102617 0)
(0.970901 -0.101942 0)
(0.963066 -0.0990953 0)
(0.957462 -0.094651 0)
(0.954883 -0.0901843 0)
(0.953561 -0.0873688 0)
(0.948399 -0.0857308 0)
(0.938776 -0.0835745 0)
(0.930316 -0.0813461 0)
(0.925285 -0.0793944 0)
(0.921861 -0.0773046 0)
(0.919225 -0.0752314 0)
(1.0144 -0.00215725 0)
(1.01553 -0.00745743 0)
(1.01745 -0.0121009 0)
(1.01998 -0.017544 0)
(1.02298 -0.0232532 0)
(1.02614 -0.02969 0)
(1.02916 -0.0368036 0)
(1.0317 -0.0446574 0)
(1.03337 -0.05316 0)
(1.03384 -0.0621715 0)
(1.03282 -0.0714495 0)
(1.03009 -0.0806874 0)
(1.0256 -0.0895339 0)
(1.01937 -0.0976237 0)
(1.01158 -0.104615 0)
(1.0025 -0.110212 0)
(0.992473 -0.114178 0)
(0.981802 -0.116427 0)
(0.970742 -0.117484 0)
(0.959407 -0.118446 0)
(0.947746 -0.119591 0)
(0.935481 -0.119654 0)
(0.923614 -0.11703 0)
(0.915895 -0.112083 0)
(0.914125 -0.107127 0)
(0.913714 -0.102604 0)
(0.91138 -0.0979944 0)
(0.908535 -0.0939246 0)
(0.906 -0.0904022 0)
(1.01534 -0.00219731 0)
(1.01655 -0.00757428 0)
(1.01863 -0.0122891 0)
(1.0214 -0.0178233 0)
(1.02472 -0.0236343 0)
(1.0283 -0.0302286 0)
(1.03183 -0.0375807 0)
(1.03495 -0.0457938 0)
(1.03728 -0.0548215 0)
(1.03841 -0.0645692 0)
(1.03799 -0.0748293 0)
(1.03577 -0.0853094 0)
(1.0316 -0.0956437 0)
(1.02546 -0.105412 0)
(1.01746 -0.114173 0)
(1.00779 -0.121551 0)
(0.996669 -0.12735 0)
(0.984418 -0.131518 0)
(0.971666 -0.133858 0)
(0.95955 -0.133688 0)
(0.949255 -0.130602 0)
(0.941751 -0.125667 0)
(0.936851 -0.121296 0)
(0.930696 -0.118864 0)
(0.919974 -0.116395 0)
(0.908464 -0.113008 0)
(0.900762 -0.109885 0)
(0.895659 -0.106703 0)
(0.891609 -0.103429 0)
(1.01619 -0.00222745 0)
(1.01748 -0.00765649 0)
(1.01971 -0.0124199 0)
(1.0227 -0.0180165 0)
(1.02632 -0.0238945 0)
(1.0303 -0.0306011 0)
(1.03432 -0.0381339 0)
(1.03803 -0.0466349 0)
(1.04102 -0.0561045 0)
(1.04287 -0.0664958 0)
(1.0432 -0.0776421 0)
(1.04167 -0.0892769 0)
(1.03808 -0.101039 0)
(1.03229 -0.112496 0)
(1.02428 -0.123182 0)
(1.01412 -0.132671 0)
(1.00212 -0.140645 0)
(0.988775 -0.146773 0)
(0.974681 -0.150785 0)
(0.960125 -0.153201 0)
(0.944931 -0.15524 0)
(0.929123 -0.156828 0)
(0.913047 -0.155905 0)
(0.899132 -0.15101 0)
(0.89138 -0.1444 0)
(0.888194 -0.138502 0)
(0.8842 -0.13254 0)
(0.879259 -0.126825 0)
(0.875008 -0.121887 0)
(1.01697 -0.00224958 0)
(1.01833 -0.00771079 0)
(1.02069 -0.0125042 0)
(1.02389 -0.0181397 0)
(1.02779 -0.0240558 0)
(1.03213 -0.0308364 0)
(1.03662 -0.0384981 0)
(1.04091 -0.0472185 0)
(1.04458 -0.0570429 0)
(1.04721 -0.0679718 0)
(1.04837 -0.079887 0)
(1.04767 -0.0925664 0)
(1.0448 -0.105682 0)
(1.03952 -0.118825 0)
(1.03171 -0.131514 0)
(1.02144 -0.143229 0)
(1.009 -0.153525 0)
(0.994789 -0.162059 0)
(0.979132 -0.168534 0)
(0.962612 -0.172494 0)
(0.946597 -0.172955 0)
(0.932764 -0.16948 0)
(0.922008 -0.164183 0)
(0.912613 -0.160475 0)
(0.900112 -0.157867 0)
(0.884707 -0.153573 0)
(0.872282 -0.148686 0)
(0.864154 -0.143994 0)
(0.85781 -0.138967 0)
(1.01767 -0.00226538 0)
(1.0191 -0.0077431 0)
(1.02159 -0.012552 0)
(1.02497 -0.018207 0)
(1.02913 -0.0241383 0)
(1.03381 -0.0309608 0)
(1.03875 -0.0387052 0)
(1.04359 -0.0475816 0)
(1.04794 -0.057677 0)
(1.05135 -0.069041 0)
(1.05337 -0.0816105 0)
(1.05355 -0.0952208 0)
(1.0515 -0.10959 0)
(1.04693 -0.124333 0)
(1.03966 -0.138967 0)
(1.02966 -0.152934 0)
(1.01709 -0.165765 0)
(1.00223 -0.177078 0)
(0.985398 -0.186291 0)
(0.967047 -0.192886 0)
(0.947569 -0.197481 0)
(0.927057 -0.201313 0)
(0.90565 -0.203413 0)
(0.884526 -0.200605 0)
(0.868113 -0.193075 0)
(0.859135 -0.185137 0)
(0.852433 -0.177618 0)
(0.844353 -0.169583 0)
(0.837055 -0.162311 0)
(1.01832 -0.00227624 0)
(1.01981 -0.00775847 0)
(1.02241 -0.0125715 0)
(1.02595 -0.0182309 0)
(1.03035 -0.024159 0)
(1.03535 -0.0309975 0)
(1.0407 -0.0387854 0)
(1.04607 -0.0477634 0)
(1.05106 -0.058057 0)
(1.05524 -0.0697644 0)
(1.05811 -0.0828777 0)
(1.05921 -0.0972907 0)
(1.05812 -0.112769 0)
(1.05448 -0.128966 0)
(1.04802 -0.145436 0)
(1.03857 -0.161653 0)
(1.02621 -0.177114 0)
(1.01116 -0.191341 0)
(0.993586 -0.203665 0)
(0.973635 -0.213345 0)
(0.952219 -0.219562 0)
(0.931377 -0.221018 0)
(0.912861 -0.217564 0)
(0.896977 -0.212874 0)
(0.880741 -0.21028 0)
(0.860647 -0.206493 0)
(0.840697 -0.199854 0)
(0.826556 -0.193067 0)
(0.816168 -0.185802 0)
(1.01891 -0.00228331 0)
(1.02045 -0.00776111 0)
(1.02315 -0.01257 0)
(1.02684 -0.0182221 0)
(1.03146 -0.0241328 0)
(1.03675 -0.0309666 0)
(1.04248 -0.0387668 0)
(1.04834 -0.0478017 0)
(1.05394 -0.0582314 0)
(1.05884 -0.0701984 0)
(1.06257 -0.0837452 0)
(1.06465 -0.0988222 0)
(1.06461 -0.115251 0)
(1.06203 -0.132739 0)
(1.05655 -0.150908 0)
(1.04793 -0.169275 0)
(1.03617 -0.18731 0)
(1.02137 -0.204493 0)
(1.00344 -0.220149 0)
(0.982353 -0.23339 0)
(0.958691 -0.243717 0)
(0.933108 -0.252002 0)
(0.905643 -0.259042 0)
(0.876568 -0.2621 0)
(0.848937 -0.25714 0)
(0.829029 -0.247371 0)
(0.816414 -0.238045 0)
(0.803678 -0.22772 0)
(0.790818 -0.217005 0)
(1.01946 -0.00228749 0)
(1.02104 -0.00775445 0)
(1.02383 -0.0125533 0)
(1.02765 -0.0181895 0)
(1.03247 -0.0240721 0)
(1.03802 -0.0308855 0)
(1.0441 -0.0386734 0)
(1.05041 -0.0477293 0)
(1.05658 -0.0582417 0)
(1.0622 -0.0703921 0)
(1.06677 -0.084269 0)
(1.06983 -0.0998796 0)
(1.07087 -0.117109 0)
(1.0694 -0.135726 0)
(1.06502 -0.155417 0)
(1.05746 -0.175751 0)
(1.04665 -0.196223 0)
(1.03247 -0.216325 0)
(1.01467 -0.235401 0)
(0.993073 -0.252553 0)
(0.968134 -0.266815 0)
(0.941276 -0.276727 0)
(0.91443 -0.280179 0)
(0.889128 -0.277935 0)
(0.865809 -0.275923 0)
(0.840122 -0.275053 0)
(0.81022 -0.269151 0)
(0.784588 -0.260024 0)
(0.766454 -0.250426 0)
(1.01995 -0.00228951 0)
(1.02157 -0.0077412 0)
(1.02444 -0.0125259 0)
(1.02838 -0.01814 0)
(1.03338 -0.0239872 0)
(1.03916 -0.0307686 0)
(1.04556 -0.038525 0)
(1.05229 -0.0475728 0)
(1.059 -0.0581231 0)
(1.06529 -0.0703916 0)
(1.07068 -0.0845103 0)
(1.07468 -0.100541 0)
(1.07677 -0.118433 0)
(1.07644 -0.13801 0)
(1.07327 -0.159018 0)
(1.06696 -0.181097 0)
(1.05734 -0.203804 0)
(1.04418 -0.226662 0)
(1.02705 -0.24905 0)
(1.00559 -0.27012 0)
(0.980011 -0.288936 0)
(0.950779 -0.305123 0)
(0.91785 -0.319837 0)
(0.881101 -0.332835 0)
(0.841704 -0.337725 0)
(0.80536 -0.330613 0)
(0.779517 -0.319657 0)
(0.759333 -0.308483 0)
(0.737599 -0.29415 0)
(1.02039 -0.00228995 0)
(1.02205 -0.00772353 0)
(1.025 -0.0124916 0)
(1.02903 -0.0180795 0)
(1.03419 -0.0238865 0)
(1.04018 -0.0306278 0)
(1.04687 -0.0383383 0)
(1.05399 -0.0473553 0)
(1.0612 -0.0579079 0)
(1.06811 -0.0702426 0)
(1.07426 -0.084531 0)
(1.07915 -0.100884 0)
(1.08228 -0.119307 0)
(1.08311 -0.139677 0)
(1.08121 -0.161799 0)
(1.07625 -0.185391 0)
(1.06801 -0.210079 0)
(1.05618 -0.235441 0)
(1.04016 -0.260934 0)
(1.01943 -0.285862 0)
(0.994044 -0.309445 0)
(0.96446 -0.330475 0)
(0.931669 -0.346371 0)
(0.897291 -0.35385 0)
(0.863291 -0.35537 0)
(0.829388 -0.359574 0)
(0.789212 -0.361437 0)
(0.745485 -0.352804 0)
(0.711435 -0.341053 0)
(1.02079 -0.00228925 0)
(1.02248 -0.00770314 0)
(1.02549 -0.0124533 0)
(1.02961 -0.0180123 0)
(1.03492 -0.0237765 0)
(1.0411 -0.0304723 0)
(1.04805 -0.0381269 0)
(1.05552 -0.0470966 0)
(1.06318 -0.0576246 0)
(1.07066 -0.0699845 0)
(1.07752 -0.0843832 0)
(1.08325 -0.100972 0)
(1.08739 -0.119807 0)
(1.08937 -0.140818 0)
(1.08874 -0.163864 0)
(1.08518 -0.188738 0)
(1.07843 -0.21513 0)
(1.06814 -0.242694 0)
(1.05358 -0.270993 0)
(1.03414 -0.29946 0)
(1.00983 -0.327477 0)
(0.980584 -0.35418 0)
(0.945524 -0.379381 0)
(0.904063 -0.405088 0)
(0.856055 -0.429164 0)
(0.801994 -0.438227 0)
(0.752021 -0.429646 0)
(0.715642 -0.418941 0)
(0.681975 -0.404323 0)
(1.02114 -0.00228779 0)
(1.02286 -0.00768134 0)
(1.02593 -0.012413 0)
(1.03013 -0.0179421 0)
(1.03557 -0.0236625 0)
(1.04191 -0.0303097 0)
(1.0491 -0.0379022 0)
(1.05687 -0.0468136 0)
(1.06494 -0.0572972 0)
(1.07295 -0.0696499 0)
(1.08046 -0.0841095 0)
(1.087 -0.10086 0)
(1.09209 -0.120007 0)
(1.09519 -0.141527 0)
(1.0958 -0.165328 0)
(1.09363 -0.191267 0)
(1.08842 -0.219092 0)
(1.07978 -0.248533 0)
(1.06696 -0.279273 0)
(1.04926 -0.310877 0)
(1.02661 -0.343021 0)
(0.998888 -0.375304 0)
(0.965304 -0.406158 0)
(0.926395 -0.431496 0)
(0.883479 -0.446431 0)
(0.838145 -0.457076 0)
(0.788114 -0.474656 0)
(0.724376 -0.480643 0)
(0.659208 -0.467963 0)
(1.02146 -0.00228583 0)
(1.02321 -0.00765912 0)
(1.02632 -0.0123725 0)
(1.03059 -0.0178713 0)
(1.03614 -0.0235483 0)
(1.04262 -0.0301457 0)
(1.05002 -0.0376731 0)
(1.05807 -0.0465192 0)
(1.06651 -0.0569443 0)
(1.075 -0.0692652 0)
(1.08312 -0.0837458 0)
(1.09041 -0.100601 0)
(1.09639 -0.119975 0)
(1.10052 -0.141892 0)
(1.10233 -0.166299 0)
(1.10152 -0.193103 0)
(1.09784 -0.222109 0)
(1.0909 -0.253105 0)
(1.07997 -0.285891 0)
(1.06433 -0.320192 0)
(1.04387 -0.355841 0)
(1.0186 -0.392774 0)
(0.987088 -0.430417 0)
(0.946634 -0.469252 0)
(0.896632 -0.513949 0)
(0.835379 -0.559703 0)
(0.758258 -0.578067 0)
(0.682823 -0.569511 0)
(0.626059 -0.559786 0)
(1.02174 -0.00228358 0)
(1.02351 -0.0076372 0)
(1.02667 -0.0123327 0)
(1.031 -0.017802 0)
(1.03665 -0.023437 0)
(1.04326 -0.0299848 0)
(1.05084 -0.0374465 0)
(1.05914 -0.0462237 0)
(1.06791 -0.0565812 0)
(1.07682 -0.0688526 0)
(1.08549 -0.0833242 0)
(1.09346 -0.100239 0)
(1.10026 -0.119773 0)
(1.10537 -0.141992 0)
(1.10831 -0.166877 0)
(1.10879 -0.194372 0)
(1.10662 -0.224335 0)
(1.10136 -0.256596 0)
(1.09233 -0.29104 0)
(1.07894 -0.327564 0)
(1.06104 -0.366141 0)
(1.03857 -0.407033 0)
(1.0107 -0.450807 0)
(0.975552 -0.496205 0)
(0.931947 -0.536431 0)
(0.879572 -0.563666 0)
(0.820213 -0.595767 0)
(0.742417 -0.64554 0)
(0.630569 -0.654544 0)
(1.02199 -0.00228117 0)
(1.02378 -0.0076161 0)
(1.02697 -0.0122945 0)
(1.03136 -0.0177356 0)
(1.0371 -0.0233306 0)
(1.04381 -0.0298301 0)
(1.05156 -0.0372272 0)
(1.06007 -0.0459346 0)
(1.06914 -0.0562192 0)
(1.07844 -0.0684298 0)
(1.0876 -0.0828708 0)
(1.09619 -0.0998093 0)
(1.10373 -0.119449 0)
(1.10974 -0.141891 0)
(1.11374 -0.167145 0)
(1.11544 -0.195184 0)
(1.11468 -0.225909 0)
(1.11106 -0.259186 0)
(1.10388 -0.294935 0)
(1.09275 -0.333202 0)
(1.07768 -0.374163 0)
(1.0584 -0.418075 0)
(1.03476 -0.465913 0)
(1.00506 -0.518804 0)
(0.961889 -0.577841 0)
(0.904443 -0.654536 0)
(0.833648 -0.748749 0)
(0.715758 -0.7963 0)
(0.566793 -0.785977 0)
(1.0222 -0.00227873 0)
(1.02401 -0.00759619 0)
(1.02724 -0.0122586 0)
(1.03168 -0.017673 0)
(1.03749 -0.0232304 0)
(1.0443 -0.029684 0)
(1.0522 -0.0370191 0)
(1.0609 -0.0456576 0)
(1.07022 -0.0558677 0)
(1.07986 -0.068011 0)
(1.08946 -0.0824067 0)
(1.0986 -0.0993432 0)
(1.10683 -0.119047 0)
(1.11365 -0.141648 0)
(1.11862 -0.167183 0)
(1.12145 -0.195646 0)
(1.12201 -0.226967 0)
(1.11993 -0.261048 0)
(1.11451 -0.297818 0)
(1.10552 -0.33738 0)
(1.09333 -0.380152 0)
(1.07757 -0.426436 0)
(1.05784 -0.477161 0)
(1.03469 -0.535957 0)
(1.00501 -0.60398 0)
(0.962365 -0.666503 0)
(0.901401 -0.710527 0)
(0.827388 -0.801567 0)
(0.679561 -0.938209 0)
(1.0224 -0.00227632 0)
(1.02422 -0.00757768 0)
(1.02748 -0.0122252 0)
(1.03196 -0.0176148 0)
(1.03783 -0.0231375 0)
(1.04473 -0.0295478 0)
(1.05275 -0.0368243 0)
(1.06162 -0.0453966 0)
(1.07117 -0.055533 0)
(1.08111 -0.067606 0)
(1.09111 -0.081947 0)
(1.10074 -0.0988623 0)
(1.10958 -0.118598 0)
(1.11714 -0.141308 0)
(1.12299 -0.167052 0)
(1.12685 -0.19584 0)
(1.1286 -0.227621 0)
(1.12794 -0.262325 0)
(1.12419 -0.299885 0)
(1.11716 -0.340384 0)
(1.10762 -0.3844 0)
(1.0955 -0.432475 0)
(1.07996 -0.4851 0)
(1.06322 -0.545899 0)
(1.04486 -0.619455 0)
(1.00677 -0.702124 0)
(0.948854 -0.82418 0)
(0.887602 -1.04163 0)
(0.643827 -1.12945 0)
(0.9991 -0.000698821 0)
(0.999211 -0.00056735 0)
(0.99922 -0.000430328 0)
(0.999115 -0.000287111 0)
(0.998877 -0.000137328 0)
(0.998476 1.91655e-05 0)
(0.997874 0.000181724 0)
(0.99703 0.000348542 0)
(0.995906 0.000516328 0)
(0.994476 0.000680057 0)
(0.992733 0.000832906 0)
(0.990705 0.000966535 0)
(0.988461 0.00107179 0)
(0.986112 0.00113981 0)
(0.983816 0.00116344 0)
(0.981756 0.00113873 0)
(0.980125 0.00106611 0)
(0.979093 0.000951097 0)
(0.978782 0.000804082 0)
(0.997172 -0.00458141 0)
(0.996938 -0.0044685 0)
(0.996778 -0.00436029 0)
(0.996706 -0.0042591 0)
(0.996751 -0.00416574 0)
(0.996958 -0.00408125 0)
(0.997389 -0.00400648 0)
(0.998117 -0.00394142 0)
(0.999219 -0.00388467 0)
(1.00077 -0.00383274 0)
(1.00281 -0.00377955 0)
(1.00534 -0.00371623 0)
(1.00831 -0.00363142 0)
(1.01158 -0.00351244 0)
(1.01493 -0.00334701 0)
(1.0181 -0.00312558 0)
(1.02077 -0.0028436 0)
(1.02267 -0.00250314 0)
(1.02356 -0.00211344 0)
(0.994059 -0.009992 0)
(0.994286 -0.00967326 0)
(0.994435 -0.0093532 0)
(0.994505 -0.0090312 0)
(0.99448 -0.00870687 0)
(0.994331 -0.0083783 0)
(0.994016 -0.00804262 0)
(0.993476 -0.0076964 0)
(0.992644 -0.0073359 0)
(0.991448 -0.00695767 0)
(0.989827 -0.00655925 0)
(0.987752 -0.00613987 0)
(0.98524 -0.00570098 0)
(0.982379 -0.00524628 0)
(0.979336 -0.00478134 0)
(0.97635 -0.00431254 0)
(0.97371 -0.00384586 0)
(0.971709 -0.00338578 0)
(0.970592 -0.00293468 0)
(0.990138 -0.0112034 0)
(0.989853 -0.0108725 0)
(0.989639 -0.0105286 0)
(0.989491 -0.0101746 0)
(0.989415 -0.00981079 0)
(0.989436 -0.00943811 0)
(0.98959 -0.00905832 0)
(0.989932 -0.00867355 0)
(0.990528 -0.00828628 0)
(0.991448 -0.00789908 0)
(0.992756 -0.00751414 0)
(0.994486 -0.00713281 0)
(0.996628 -0.00675528 0)
(0.999101 -0.0063804 0)
(1.00175 -0.00600606 0)
(1.00434 -0.00562978 0)
(1.00659 -0.00524961 0)
(1.00824 -0.00486467 0)
(1.00906 -0.0044753 0)
(0.984038 -0.0188833 0)
(0.984046 -0.0182418 0)
(0.983997 -0.0175957 0)
(0.983895 -0.0169461 0)
(0.983731 -0.0162954 0)
(0.983488 -0.0156445 0)
(0.983133 -0.014994 0)
(0.982622 -0.0143439 0)
(0.981896 -0.0136934 0)
(0.980889 -0.0130412 0)
(0.979538 -0.0123856 0)
(0.977798 -0.0117246 0)
(0.975664 -0.0110566 0)
(0.973196 -0.0103804 0)
(0.970529 -0.00969535 0)
(0.967878 -0.00900114 0)
(0.965511 -0.00829712 0)
(0.963709 -0.00758227 0)
(0.962704 -0.00685543 0)
(0.977872 -0.0199658 0)
(0.977394 -0.0194206 0)
(0.977005 -0.0188506 0)
(0.976697 -0.0182595 0)
(0.976472 -0.0176475 0)
(0.976345 -0.0170156 0)
(0.976341 -0.0163657 0)
(0.976499 -0.0157003 0)
(0.976866 -0.0150222 0)
(0.977495 -0.0143347 0)
(0.978436 -0.0136411 0)
(0.979721 -0.0129441 0)
(0.98134 -0.0122453 0)
(0.983231 -0.0115452 0)
(0.985258 -0.0108427 0)
(0.98722 -0.0101365 0)
(0.988872 -0.00942563 0)
(0.989973 -0.00871057 0)
(0.990335 -0.00799359 0)
(0.97007 -0.0289062 0)
(0.969711 -0.0278459 0)
(0.969319 -0.0267764 0)
(0.968905 -0.025698 0)
(0.96847 -0.0246131 0)
(0.968005 -0.0235229 0)
(0.96749 -0.022428 0)
(0.966894 -0.0213291 0)
(0.966169 -0.0202264 0)
(0.965259 -0.0191203 0)
(0.964102 -0.018012 0)
(0.962646 -0.0169036 0)
(0.96087 -0.0157993 0)
(0.958803 -0.0147059 0)
(0.95655 -0.013632 0)
(0.954296 -0.0125865 0)
(0.952287 -0.0115761 0)
(0.950787 -0.0106027 0)
(0.950017 -0.009661 0)
(0.961096 -0.0330219 0)
(0.960351 -0.0321964 0)
(0.959696 -0.0313401 0)
(0.959122 -0.0304584 0)
(0.958633 -0.0295511 0)
(0.95824 -0.0286191 0)
(0.957965 -0.0276644 0)
(0.957838 -0.0266896 0)
(0.957902 -0.0256977 0)
(0.958208 -0.0246916 0)
(0.95881 -0.0236731 0)
(0.959755 -0.022642 0)
(0.96106 -0.0215936 0)
(0.962694 -0.0205183 0)
(0.964552 -0.0194011 0)
(0.966445 -0.0182232 0)
(0.968114 -0.0169673 0)
(0.969274 -0.0156228 0)
(0.969678 -0.0141925 0)
(0.952213 -0.0433268 0)
(0.951457 -0.0417965 0)
(0.95069 -0.0402428 0)
(0.949928 -0.0386664 0)
(0.949181 -0.0370699 0)
(0.948449 -0.035454 0)
(0.947722 -0.0338187 0)
(0.94698 -0.0321634 0)
(0.946184 -0.0304872 0)
(0.945278 -0.0287888 0)
(0.944188 -0.0270678 0)
(0.942832 -0.0253266 0)
(0.941134 -0.0235722 0)
(0.939058 -0.0218192 0)
(0.93664 -0.0200903 0)
(0.93402 -0.018415 0)
(0.931454 -0.0168238 0)
(0.929285 -0.0153385 0)
(0.927866 -0.0139618 0)
(0.940971 -0.0510132 0)
(0.939817 -0.0497609 0)
(0.938754 -0.0484666 0)
(0.937773 -0.0471381 0)
(0.936875 -0.0457757 0)
(0.936067 -0.0443808 0)
(0.935361 -0.0429552 0)
(0.934779 -0.0415013 0)
(0.934352 -0.0400216 0)
(0.934128 -0.0385189 0)
(0.934166 -0.036995 0)
(0.934544 -0.0354496 0)
(0.935335 -0.0338764 0)
(0.936589 -0.0322603 0)
(0.938289 -0.0305734 0)
(0.940309 -0.0287751 0)
(0.942387 -0.0268174 0)
(0.944135 -0.0246586 0)
(0.945113 -0.0222828 0)
(0.930329 -0.0628562 0)
(0.929058 -0.0607273 0)
(0.927804 -0.0585465 0)
(0.926581 -0.0563155 0)
(0.925399 -0.0540358 0)
(0.924261 -0.0517067 0)
(0.923162 -0.0493264 0)
(0.922087 -0.0468931 0)
(0.921007 -0.0444045 0)
(0.919875 -0.0418582 0)
(0.918612 -0.0392525 0)
(0.917115 -0.0365881 0)
(0.915252 -0.0338718 0)
(0.912893 -0.0311216 0)
(0.90995 -0.0283733 0)
(0.906447 -0.025684 0)
(0.9026 -0.0231291 0)
(0.898852 -0.0207872 0)
(0.895835 -0.0187123 0)
(0.917145 -0.073254 0)
(0.915326 -0.0712939 0)
(0.913609 -0.06926 0)
(0.911985 -0.067166 0)
(0.91045 -0.0650193 0)
(0.909007 -0.0628277 0)
(0.907663 -0.0606003 0)
(0.906432 -0.0583463 0)
(0.905334 -0.0560758 0)
(0.904409 -0.053799 0)
(0.903714 -0.0515268 0)
(0.903345 -0.0492694 0)
(0.90343 -0.0470332 0)
(0.904127 -0.0448148 0)
(0.905579 -0.042591 0)
(0.907845 -0.0403083 0)
(0.910783 -0.0378758 0)
(0.913963 -0.0351744 0)
(0.916657 -0.0320926 0)
(0.903749 -0.0872897 0)
(0.901682 -0.0843277 0)
(0.899684 -0.0812764 0)
(0.897772 -0.0781439 0)
(0.895959 -0.0749327 0)
(0.894252 -0.0716422 0)
(0.892651 -0.068271 0)
(0.891151 -0.0648177 0)
(0.889737 -0.0612806 0)
(0.888376 -0.057657 0)
(0.887011 -0.0539436 0)
(0.885545 -0.050136 0)
(0.883825 -0.046231 0)
(0.88164 -0.0422318 0)
(0.878728 -0.0381594 0)
(0.874855 -0.0340694 0)
(0.869945 -0.0300696 0)
(0.864288 -0.0263222 0)
(0.858704 -0.0230123 0)
(0.888393 -0.100333 0)
(0.885588 -0.0972434 0)
(0.88295 -0.0940114 0)
(0.880472 -0.0906667 0)
(0.878149 -0.08723 0)
(0.875981 -0.0837252 0)
(0.873974 -0.0801764 0)
(0.872131 -0.0766087 0)
(0.870464 -0.0730473 0)
(0.868988 -0.0695177 0)
(0.867737 -0.0660459 0)
(0.866776 -0.0626589 0)
(0.86622 -0.0593846 0)
(0.866264 -0.0562495 0)
(0.867193 -0.0532689 0)
(0.869336 -0.0504283 0)
(0.872938 -0.0476501 0)
(0.877893 -0.0447619 0)
(0.883449 -0.0414966 0)
(0.871358 -0.117428 0)
(0.868055 -0.113133 0)
(0.864934 -0.108689 0)
(0.862021 -0.104108 0)
(0.859336 -0.0994064 0)
(0.856896 -0.0945881 0)
(0.854707 -0.0896602 0)
(0.852771 -0.0846295 0)
(0.851078 -0.0795016 0)
(0.84961 -0.074281 0)
(0.848332 -0.0689702 0)
(0.847179 -0.0635691 0)
(0.846038 -0.0580737 0)
(0.844715 -0.0524764 0)
(0.842891 -0.0467717 0)
(0.840099 -0.0409721 0)
(0.835791 -0.0351487 0)
(0.829601 -0.0294816 0)
(0.821836 -0.0242891 0)
(0.852708 -0.13411 0)
(0.848343 -0.129222 0)
(0.844302 -0.124016 0)
(0.840594 -0.118572 0)
(0.837225 -0.112929 0)
(0.834198 -0.107139 0)
(0.831522 -0.101253 0)
(0.829198 -0.0953275 0)
(0.827227 -0.0894205 0)
(0.825611 -0.0835925 0)
(0.824354 -0.0779071 0)
(0.823478 -0.07243 0)
(0.823034 -0.0672288 0)
(0.823146 -0.0623741 0)
(0.824061 -0.0579345 0)
(0.82621 -0.0539739 0)
(0.83022 -0.0505092 0)
(0.83668 -0.0474483 0)
(0.845609 -0.0444906 0)
(0.831033 -0.155688 0)
(0.825602 -0.149109 0)
(0.820567 -0.142222 0)
(0.81598 -0.135033 0)
(0.811883 -0.127589 0)
(0.808321 -0.119926 0)
(0.805316 -0.112085 0)
(0.802887 -0.104115 0)
(0.801039 -0.0960571 0)
(0.799763 -0.0879546 0)
(0.799035 -0.079841 0)
(0.798808 -0.0717416 0)
(0.798998 -0.0636714 0)
(0.799465 -0.055632 0)
(0.79995 -0.0476189 0)
(0.799999 -0.0396098 0)
(0.798814 -0.0316215 0)
(0.795325 -0.0237667 0)
(0.78845 -0.0163307 0)
(0.807579 -0.178234 0)
(0.80031 -0.170505 0)
(0.793678 -0.16205 0)
(0.787706 -0.153041 0)
(0.782474 -0.143566 0)
(0.778005 -0.133718 0)
(0.774345 -0.12361 0)
(0.771509 -0.113352 0)
(0.769509 -0.103067 0)
(0.768335 -0.092886 0)
(0.76797 -0.0829502 0)
(0.76839 -0.0734119 0)
(0.769584 -0.064434 0)
(0.771577 -0.0561954 0)
(0.77449 -0.0488659 0)
(0.778611 -0.0426467 0)
(0.784634 -0.0376754 0)
(0.793518 -0.0340043 0)
(0.806547 -0.0315916 0)
(0.780318 -0.207189 0)
(0.770916 -0.197012 0)
(0.762202 -0.186043 0)
(0.754418 -0.174343 0)
(0.747618 -0.161968 0)
(0.741943 -0.149057 0)
(0.737451 -0.135727 0)
(0.734215 -0.122127 0)
(0.73226 -0.10841 0)
(0.731606 -0.0947284 0)
(0.73224 -0.0812272 0)
(0.734126 -0.0680328 0)
(0.737188 -0.0552457 0)
(0.741297 -0.0429136 0)
(0.746215 -0.0310819 0)
(0.751588 -0.0196614 0)
(0.756468 -0.00862656 0)
(0.759697 0.00192013 0)
(0.758962 0.0119561 0)
(0.751511 -0.239286 0)
(0.738533 -0.227282 0)
(0.726843 -0.213821 0)
(0.716337 -0.198999 0)
(0.707315 -0.183118 0)
(0.699859 -0.166323 0)
(0.694122 -0.148857 0)
(0.690167 -0.130947 0)
(0.688066 -0.112844 0)
(0.687823 -0.0948046 0)
(0.689425 -0.0771049 0)
(0.692815 -0.0600384 0)
(0.697909 -0.0439159 0)
(0.704606 -0.0291214 0)
(0.712888 -0.0159769 0)
(0.722664 -0.00506366 0)
(0.734814 0.0032094 0)
(0.749953 0.00864084 0)
(0.770068 0.0104848 0)
(0.718401 -0.279907 0)
(0.701674 -0.26486 0)
(0.685897 -0.247627 0)
(0.671917 -0.228783 0)
(0.659842 -0.208299 0)
(0.649989 -0.18653 0)
(0.642482 -0.163759 0)
(0.637505 -0.140314 0)
(0.635104 -0.116529 0)
(0.635348 -0.0927563 0)
(0.638237 -0.0693421 0)
(0.643748 -0.0466314 0)
(0.651807 -0.0249737 0)
(0.662314 -0.00457892 0)
(0.674926 0.0141796 0)
(0.68973 0.0315341 0)
(0.704963 0.0474563 0)
(0.719991 0.0618155 0)
(0.732369 0.0755703 0)
(0.685459 -0.32666 0)
(0.661866 -0.308566 0)
(0.640721 -0.287802 0)
(0.621827 -0.264049 0)
(0.605731 -0.238012 0)
(0.592634 -0.210123 0)
(0.582862 -0.180805 0)
(0.576442 -0.150534 0)
(0.57355 -0.119752 0)
(0.5742 -0.0888915 0)
(0.578429 -0.0584044 0)
(0.586223 -0.0287667 0)
(0.597537 -0.000441698 0)
(0.612187 0.0258216 0)
(0.630367 0.0496978 0)
(0.65078 0.0696881 0)
(0.675584 0.0851158 0)
(0.703839 0.0951695 0)
(0.737429 0.0964616 0)
(0.647237 -0.383994 0)
(0.617045 -0.362462 0)
(0.588978 -0.336053 0)
(0.564154 -0.306013 0)