/*--------------------------------*- C++ -*----------------------------------*\
  =========                 |
  \\      /  F ield         | OpenFOAM: The Open Source CFD Toolbox
   \\    /   O peration     | Website:  https://openfoam.org
    \\  /    A nd           | Version:  10
     \\/     M anipulation  |
\*---------------------------------------------------------------------------*/
FoamFile
{
    format      ascii;
    class       volVectorField;
    location    "0";
    object      U;
}
// * * * * * * * * * * * * * * * * * * * * * * * * * * * * * * * * * * * * * //

dimensions      [0 1 -1 0 0 0 0];

internalField   nonuniform List<vector> 
18483
(
(1.00001 -0.000200662 0)
(1.00001 -0.000722626 0)
(1.00001 -0.00116027 0)
(1 -0.00163765 0)
(1 -0.0021029 0)
(0.999998 -0.00256128 0)
(0.999995 -0.00299363 0)
(0.999991 -0.00338573 0)
(0.999987 -0.00372564 0)
(0.999986 -0.00400713 0)
(0.999989 -0.00423305 0)
(1 -0.00441775 0)
(1.00003 -0.00458747 0)
(1.00008 -0.00478991 0)
(1.00016 -0.0050688 0)
(1.00024 -0.0054358 0)
(1.00018 -0.0058304 0)
(0.999415 -0.00615706 0)
(0.996767 -0.00636519 0)
(0.991544 -0.00645862 0)
(0.985869 -0.00653146 0)
(0.983758 -0.00659056 0)
(0.986168 -0.00647916 0)
(0.990311 -0.0061675 0)
(0.993787 -0.00578292 0)
(0.996061 -0.00542101 0)
(0.997401 -0.00511233 0)
(0.998145 -0.00486105 0)
(0.998524 -0.00466064 0)
(1.0006 -0.000568341 0)
(1.00063 -0.00203405 0)
(1.00071 -0.00327104 0)
(1.00079 -0.0046406 0)
(1.00088 -0.00598808 0)
(1.00094 -0.00733446 0)
(1.00098 -0.00862265 0)
(1.00097 -0.00980733 0)
(1.00093 -0.0108408 0)
(1.00084 -0.0116879 0)
(1.00072 -0.0123236 0)
(1.00059 -0.0127411 0)
(1.00049 -0.0129179 0)
(1.00042 -0.0127669 0)
(1.00037 -0.0121978 0)
(1.00029 -0.0111758 0)
(1.00024 -0.00983003 0)
(1.00081 -0.00843305 0)
(1.00344 -0.00728957 0)
(1.00909 -0.00672332 0)
(1.0152 -0.00671947 0)
(1.01663 -0.00696814 0)
(1.01232 -0.0073522 0)
(1.00637 -0.00781635 0)
(1.00199 -0.00821289 0)
(0.999483 -0.00846874 0)
(0.998209 -0.00860282 0)
(0.997618 -0.00864778 0)
(0.997399 -0.0086339 0)
(1.00173 -0.000920904 0)
(1.00184 -0.00326842 0)
(1.00206 -0.0052488 0)
(1.0023 -0.00745359 0)
(1.00254 -0.00961966 0)
(1.00274 -0.0117988 0)
(1.00286 -0.0138987 0)
(1.00285 -0.0158524 0)
(1.0027 -0.0175837 0)
(1.00241 -0.0190371 0)
(1.00198 -0.0201789 0)
(1.00144 -0.0209969 0)
(1.00082 -0.0215134 0)
(1.00012 -0.0218306 0)
(0.999288 -0.0221677 0)
(0.998301 -0.0227401 0)
(0.997154 -0.0235382 0)
(0.995643 -0.0242869 0)
(0.993063 -0.0245793 0)
(0.98884 -0.0240047 0)
(0.9845 -0.0225334 0)
(0.983492 -0.020763 0)
(0.986574 -0.0192118 0)
(0.990542 -0.0178857 0)
(0.993069 -0.0167708 0)
(0.994254 -0.0158793 0)
(0.994718 -0.0151625 0)
(0.99484 -0.0145809 0)
(0.994796 -0.0141053 0)
(1.00316 -0.00126888 0)
(1.00336 -0.00447026 0)
(1.00375 -0.00716744 0)
(1.00419 -0.0101782 0)
(1.00464 -0.0131289 0)
(1.00501 -0.0161157 0)
(1.00523 -0.0190177 0)
(1.00525 -0.0217553 0)
(1.00502 -0.0242266 0)
(1.00454 -0.0263493 0)
(1.00383 -0.0280659 0)
(1.00296 -0.0293484 0)
(1.00198 -0.0302083 0)
(1.00096 -0.0306876 0)
(0.999968 -0.0307497 0)
(0.99908 -0.0302064 0)
(0.998322 -0.029002 0)
(0.997864 -0.0274136 0)
(0.998401 -0.0258662 0)
(1.00094 -0.0247408 0)
(1.00461 -0.0242457 0)
(1.00575 -0.0240842 0)
(1.00252 -0.023818 0)
(0.997749 -0.0235352 0)
(0.994305 -0.0233225 0)
(0.992338 -0.0230933 0)
(0.991214 -0.0228412 0)
(0.990535 -0.0225732 0)
(0.990106 -0.0222974 0)
(1.0047 -0.0015991 0)
(1.00501 -0.00560459 0)
(1.00558 -0.00898009 0)
(1.00623 -0.0127553 0)
(1.00692 -0.0164561 0)
(1.00752 -0.0202309 0)
(1.00791 -0.0239357 0)
(1.00801 -0.027482 0)
(1.00775 -0.0307365 0)
(1.00712 -0.0335842 0)
(1.00613 -0.0359329 0)
(1.00483 -0.0377334 0)
(1.00331 -0.0389805 0)
(1.00162 -0.0397148 0)
(0.999831 -0.0400654 0)
(0.997944 -0.0403124 0)
(0.995888 -0.040716 0)
(0.993493 -0.0412516 0)
(0.990246 -0.0415806 0)
(0.985544 -0.0412637 0)
(0.980243 -0.0400818 0)
(0.97742 -0.0382988 0)
(0.978879 -0.0365317 0)
(0.982138 -0.0349067 0)
(0.984335 -0.0333127 0)
(0.985281 -0.0318873 0)
(0.985605 -0.030666 0)
(0.985642 -0.0296308 0)
(0.985545 -0.0287646 0)
(1.00631 -0.00189513 0)
(1.00675 -0.00661901 0)
(1.00751 -0.0106098 0)
(1.00842 -0.0150847 0)
(1.00939 -0.0194852 0)
(1.01026 -0.0240171 0)
(1.01088 -0.0285208 0)
(1.01113 -0.032909 0)
(1.0109 -0.0370269 0)
(1.01013 -0.0407426 0)
(1.00882 -0.0439411 0)
(1.00704 -0.0465499 0)
(1.00489 -0.0485402 0)
(1.00252 -0.0499058 0)
(1.00006 -0.0506266 0)
(0.997664 -0.0506259 0)
(0.995431 -0.0497744 0)
(0.993419 -0.0481146 0)
(0.992035 -0.046064 0)
(0.992271 -0.0441896 0)
(0.994235 -0.0429013 0)
(0.995106 -0.0422466 0)
(0.99209 -0.0416915 0)
(0.986968 -0.0410389 0)
(0.983043 -0.0405163 0)
(0.980781 -0.0400056 0)
(0.979392 -0.0394417 0)
(0.978446 -0.0388538 0)
(0.977751 -0.0382569 0)
(1.00799 -0.0021468 0)
(1.00856 -0.00747815 0)
(1.00955 -0.0120016 0)
(1.01074 -0.0170939 0)
(1.01204 -0.0221277 0)
(1.01325 -0.0273706 0)
(1.01419 -0.032657 0)
(1.01467 -0.0379119 0)
(1.01456 -0.0429677 0)
(1.01378 -0.0476692 0)
(1.01231 -0.0518543 0)
(1.01024 -0.055378 0)
(1.00769 -0.0581292 0)
(1.00482 -0.060037 0)
(1.00173 -0.0610984 0)
(0.998469 -0.0615089 0)
(0.995006 -0.0617332 0)
(0.99126 -0.0621267 0)
(0.986942 -0.0625505 0)
(0.981448 -0.0625701 0)
(0.974896 -0.0618063 0)
(0.969676 -0.0601674 0)
(0.968656 -0.0582036 0)
(0.970633 -0.0562986 0)
(0.972116 -0.0542591 0)
(0.97231 -0.0522625 0)
(0.971996 -0.0504937 0)
(0.971531 -0.0489495 0)
(0.971032 -0.0476294 0)
(1.00969 -0.00235184 0)
(1.0104 -0.00817223 0)
(1.01164 -0.0131369 0)
(1.01315 -0.0187561 0)
(1.01482 -0.0243466 0)
(1.01642 -0.0302388 0)
(1.01775 -0.036269 0)
(1.01857 -0.0423797 0)
(1.01872 -0.048394 0)
(1.01807 -0.0541325 0)
(1.01656 -0.0593925 0)
(1.01422 -0.0639867 0)
(1.01112 -0.0677783 0)
(1.00738 -0.0707138 0)
(1.00315 -0.0728102 0)
(0.998635 -0.074062 0)
(0.994134 -0.0742826 0)
(0.989976 -0.0732251 0)
(0.98653 -0.0711221 0)
(0.984696 -0.0687024 0)
(0.985196 -0.0666718 0)
(0.985895 -0.0653959 0)
(0.982793 -0.064411 0)
(0.976211 -0.0632861 0)
(0.970388 -0.0623513 0)
(0.966834 -0.0615459 0)
(0.964487 -0.0606537 0)
(0.962753 -0.05972 0)
(0.96142 -0.0587721 0)
(1.01137 -0.00251452 0)
(1.01222 -0.008714 0)
(1.0137 -0.0140297 0)
(1.01555 -0.0200856 0)
(1.01762 -0.0261522 0)
(1.01966 -0.0326193 0)
(1.02143 -0.0393304 0)
(1.02269 -0.0462517 0)
(1.0232 -0.0532126 0)
(1.02279 -0.060035 0)
(1.02131 -0.0665063 0)
(1.01875 -0.0724164 0)
(1.01517 -0.0775724 0)
(1.01075 -0.0818083 0)
(1.00575 -0.0849695 0)
(1.00043 -0.0869461 0)
(0.994965 -0.0879153 0)
(0.989385 -0.0885434 0)
(0.983567 -0.0893705 0)
(0.976957 -0.0900663 0)
(0.968782 -0.0898693 0)
(0.960421 -0.0883687 0)
(0.955924 -0.086135 0)
(0.956265 -0.0838566 0)
(0.957195 -0.0813214 0)
(0.956445 -0.0786369 0)
(0.955106 -0.076215 0)
(0.953779 -0.0740762 0)
(0.952533 -0.0722188 0)
(1.01299 -0.00264243 0)
(1.01396 -0.00912891 0)
(1.01568 -0.0147143 0)
(1.01787 -0.0211216 0)
(1.02036 -0.0275839 0)
(1.02286 -0.0345435 0)
(1.02513 -0.0418554 0)
(1.0269 -0.0495183 0)
(1.02788 -0.0573843 0)
(1.02785 -0.0652929 0)
(1.02662 -0.0730213 0)
(1.02414 -0.0803112 0)
(1.02045 -0.086882 0)
(1.01569 -0.0924752 0)
(1.01003 -0.0969221 0)
(1.00362 -0.100194 0)
(0.996735 -0.102293 0)
(0.989874 -0.102973 0)
(0.983762 -0.101929 0)
(0.979258 -0.0995382 0)
(0.977404 -0.0968907 0)
(0.977224 -0.0949844 0)
(0.973968 -0.0936486 0)
(0.965479 -0.0920958 0)
(0.95655 -0.0906882 0)
(0.95087 -0.0896138 0)
(0.947117 -0.0884126 0)
(0.944175 -0.087112 0)
(0.941871 -0.0857931 0)
(1.01455 -0.00274322 0)
(1.01564 -0.00944508 0)
(1.01758 -0.0152316 0)
(1.02009 -0.021912 0)
(1.02299 -0.0286916 0)
(1.02597 -0.0360588 0)
(1.02878 -0.0438805 0)
(1.03113 -0.0521926 0)
(1.0327 -0.0608772 0)
(1.03322 -0.0697952 0)
(1.03246 -0.078723 0)
(1.03029 -0.0873863 0)
(1.02664 -0.0954863 0)
(1.02153 -0.102754 0)
(1.01508 -0.10898 0)
(1.00758 -0.11399 0)
(0.999499 -0.117628 0)
(0.991262 -0.120044 0)
(0.982971 -0.121981 0)
(0.974157 -0.12389 0)
(0.96368 -0.124982 0)
(0.951631 -0.124138 0)
(0.942413 -0.121641 0)
(0.940078 -0.118841 0)
(0.940627 -0.115821 0)
(0.938978 -0.11232 0)
(0.936195 -0.109069 0)
(0.933674 -0.106228 0)
(0.931362 -0.103719 0)
(1.01605 -0.00282273 0)
(1.01726 -0.00968664 0)
(1.01938 -0.0156208 0)
(1.0222 -0.0225049 0)
(1.0255 -0.0295275 0)
(1.02896 -0.0372184 0)
(1.03233 -0.0454533 0)
(1.03529 -0.0543052 0)
(1.03753 -0.0636909 0)
(1.03873 -0.0735068 0)
(1.03859 -0.0835621 0)
(1.03686 -0.0936112 0)
(1.0334 -0.103357 0)
(1.02819 -0.112462 0)
(1.02139 -0.120564 0)
(1.0133 -0.127326 0)
(1.00429 -0.132524 0)
(0.994776 -0.135951 0)
(0.985397 -0.137192 0)
(0.977164 -0.136028 0)
(0.971511 -0.133289 0)
(0.968945 -0.130794 0)
(0.965368 -0.129466 0)
(0.955417 -0.128066 0)
(0.942405 -0.126261 0)
(0.933368 -0.124925 0)
(0.927764 -0.123475 0)
(0.923194 -0.121684 0)
(0.919554 -0.119846 0)
(1.01747 -0.00288518 0)
(1.01879 -0.00987072 0)
(1.02109 -0.0159134 0)
(1.02417 -0.0229436 0)
(1.02784 -0.0301408 0)
(1.03178 -0.0380753 0)
(1.0357 -0.0466281 0)
(1.03931 -0.0559065 0)
(1.04226 -0.0658683 0)
(1.04421 -0.0764604 0)
(1.0448 -0.0875424 0)
(1.04373 -0.0989027 0)
(1.0408 -0.110233 0)
(1.03594 -0.121137 0)
(1.02916 -0.131196 0)
(1.0206 -0.140056 0)
(1.01052 -0.147461 0)
(0.999409 -0.153248 0)
(0.987781 -0.157764 0)
(0.9757 -0.161859 0)
(0.962264 -0.165438 0)
(0.946344 -0.166834 0)
(0.931107 -0.164864 0)
(0.923568 -0.161306 0)
(0.922837 -0.157742 0)
(0.920462 -0.153427 0)
(0.915577 -0.149008 0)
(0.911233 -0.145258 0)
(0.907356 -0.141901 0)
(1.01878 -0.00293379 0)
(1.02021 -0.0100085 0)
(1.02269 -0.0161311 0)
(1.02601 -0.0232627 0)
(1.03002 -0.0305748 0)
(1.0344 -0.0386798 0)
(1.03886 -0.0474619 0)
(1.04311 -0.0570594 0)
(1.0468 -0.067472 0)
(1.04955 -0.0787005 0)
(1.05101 -0.0906553 0)
(1.05083 -0.103166 0)
(1.04872 -0.115958 0)
(1.04445 -0.12866 0)
(1.03786 -0.140854 0)
(1.02903 -0.152096 0)
(1.01827 -0.161919 0)
(1.00618 -0.169804 0)
(0.993463 -0.175131 0)
(0.981123 -0.177162 0)
(0.970423 -0.175865 0)
(0.963037 -0.173111 0)
(0.957683 -0.171727 0)
(0.94713 -0.171388 0)
(0.929803 -0.169829 0)
(0.915187 -0.168101 0)
(0.906611 -0.166518 0)
(0.899762 -0.164103 0)
(0.894072 -0.161444 0)
(1.01997 -0.00297112 0)
(1.02151 -0.0101082 0)
(1.02417 -0.0162878 0)
(1.02771 -0.0234872 0)
(1.03203 -0.0308655 0)
(1.03682 -0.0390774 0)
(1.0418 -0.0480102 0)
(1.04666 -0.0578285 0)
(1.05108 -0.0685692 0)
(1.05469 -0.0802835 0)
(1.05711 -0.0929381 0)
(1.05793 -0.10643 0)
(1.05679 -0.120561 0)
(1.05331 -0.135015 0)
(1.04729 -0.149343 0)
(1.03869 -0.162987 0)
(1.02774 -0.175384 0)
(1.01478 -0.186043 0)
(1.00025 -0.194788 0)
(0.98446 -0.202379 0)
(0.967121 -0.209687 0)
(0.947182 -0.215376 0)
(0.925506 -0.21634 0)
(0.909444 -0.212663 0)
(0.904115 -0.208136 0)
(0.900914 -0.203274 0)
(0.893393 -0.197387 0)
(0.885989 -0.192272 0)
(0.879826 -0.187809 0)
(1.02106 -0.00299926 0)
(1.02269 -0.0101765 0)
(1.02551 -0.0163939 0)
(1.02927 -0.0236351 0)
(1.03387 -0.0310418 0)
(1.03904 -0.0393083 0)
(1.04449 -0.0483247 0)
(1.04995 -0.0582771 0)
(1.05508 -0.0692334 0)
(1.05954 -0.0812922 0)
(1.06294 -0.0944839 0)
(1.06484 -0.108787 0)
(1.06481 -0.124085 0)
(1.06244 -0.140114 0)
(1.0574 -0.156445 0)
(1.04948 -0.172521 0)
(1.03865 -0.187777 0)
(1.02522 -0.201622 0)
(1.00978 -0.213222 0)
(0.993273 -0.22131 0)
(0.977111 -0.22455 0)
(0.963079 -0.223377 0)
(0.952762 -0.221593 0)
(0.941284 -0.22256 0)
(0.920925 -0.223064 0)
(0.898223 -0.221166 0)
(0.883758 -0.219335 0)
(0.873609 -0.216417 0)
(0.864586 -0.212444 0)
(1.02205 -0.00301997 0)
(1.02376 -0.0102197 0)
(1.02672 -0.0164584 0)
(1.03068 -0.0237199 0)
(1.03556 -0.0311273 0)
(1.04106 -0.0394074 0)
(1.04695 -0.0484522 0)
(1.05295 -0.0584658 0)
(1.05877 -0.0695413 0)
(1.06405 -0.0818209 0)
(1.06842 -0.0953968 0)
(1.07145 -0.110324 0)
(1.07269 -0.126565 0)
(1.07167 -0.143946 0)
(1.06791 -0.162127 0)
(1.06099 -0.180605 0)
(1.05079 -0.198763 0)
(1.03749 -0.215866 0)
(1.02143 -0.231075 0)
(1.00275 -0.244089 0)
(0.981335 -0.256132 0)
(0.95687 -0.267895 0)
(0.929268 -0.275952 0)
(0.902591 -0.275668 0)
(0.886642 -0.270085 0)
(0.880109 -0.264622 0)
(0.870104 -0.257776 0)
(0.857625 -0.25048 0)
(0.847708 -0.244472 0)
(1.02294 -0.00303464 0)
(1.02473 -0.0102432 0)
(1.02782 -0.0164897 0)
(1.03196 -0.0237537 0)
(1.03708 -0.0311407 0)
(1.04289 -0.0394042 0)
(1.04918 -0.0484342 0)
(1.05569 -0.0584509 0)
(1.06213 -0.069567 0)
(1.06819 -0.0819607 0)
(1.07351 -0.0957771 0)
(1.0777 -0.111141 0)
(1.08028 -0.128108 0)
(1.08072 -0.146615 0)
(1.07844 -0.166439 0)
(1.07291 -0.187148 0)
(1.06385 -0.208128 0)
(1.05122 -0.228669 0)
(1.03508 -0.247926 0)
(1.01579 -0.264611 0)
(0.994483 -0.276611 0)
(0.9733 -0.281786 0)
(0.954845 -0.281609 0)
(0.939294 -0.282924 0)
(0.917496 -0.287379 0)
(0.88634 -0.287865 0)
(0.860525 -0.285364 0)
(0.844404 -0.282299 0)
(0.830203 -0.276703 0)
(1.02375 -0.00304441 0)
(1.0256 -0.0102513 0)
(1.02881 -0.0164951 0)
(1.03311 -0.023747 0)
(1.03846 -0.031098 0)
(1.04455 -0.0393232 0)
(1.0512 -0.0483061 0)
(1.05816 -0.0582815 0)
(1.06518 -0.0693757 0)
(1.07196 -0.081794 0)
(1.0782 -0.0957263 0)
(1.08351 -0.111363 0)
(1.08743 -0.128854 0)
(1.0894 -0.148251 0)
(1.08878 -0.169446 0)
(1.08499 -0.192121 0)
(1.07754 -0.215747 0)
(1.06615 -0.239645 0)
(1.05073 -0.262893 0)
(1.03121 -0.284259 0)
(1.00727 -0.303424 0)
(0.978617 -0.322237 0)
(0.945506 -0.340451 0)
(0.909005 -0.3508 0)
(0.876952 -0.348383 0)
(0.859272 -0.341524 0)
(0.846207 -0.335054 0)
(0.827075 -0.325683 0)
(0.809969 -0.317073 0)
(1.02447 -0.00305027 0)
(1.02639 -0.0102473 0)
(1.02969 -0.0164805 0)
(1.03414 -0.0237091 0)
(1.0397 -0.0310128 0)
(1.04605 -0.0391847 0)
(1.05302 -0.0480977 0)
(1.06039 -0.0579992 0)
(1.06793 -0.0690244 0)
(1.07539 -0.0813969 0)
(1.08248 -0.0953446 0)
(1.08885 -0.111117 0)
(1.09407 -0.128947 0)
(1.0976 -0.148992 0)
(1.09878 -0.171264 0)
(1.09696 -0.195598 0)
(1.09148 -0.221599 0)
(1.08186 -0.24865 0)
(1.06778 -0.275969 0)
(1.0488 -0.30241 0)
(1.0249 -0.326087 0)
(0.997933 -0.343818 0)
(0.970937 -0.352325 0)
(0.946286 -0.354964 0)
(0.92119 -0.362511 0)
(0.884787 -0.37107 0)
(0.842722 -0.370413 0)
(0.813148 -0.366927 0)
(0.79117 -0.360773 0)
(1.02513 -0.00305304 0)
(1.02709 -0.0102339 0)
(1.03049 -0.0164511 0)
(1.03507 -0.0236484 0)
(1.04082 -0.030897 0)
(1.04738 -0.0390056 0)
(1.05465 -0.0478333 0)
(1.0624 -0.0576385 0)
(1.07041 -0.0685606 0)
(1.07847 -0.0808352 0)
(1.08634 -0.0947202 0)
(1.09371 -0.110513 0)
(1.10019 -0.128515 0)
(1.10527 -0.148985 0)
(1.10829 -0.172057 0)
(1.10854 -0.197724 0)
(1.1053 -0.225753 0)
(1.09791 -0.255639 0)
(1.08584 -0.286734 0)
(1.06846 -0.317927 0)
(1.045 -0.347538 0)
(1.01495 -0.375608 0)
(0.978105 -0.404859 0)
(0.934446 -0.432696 0)
(0.886074 -0.4455 0)
(0.846351 -0.440508 0)
(0.82266 -0.433918 0)
(0.797328 -0.425927 0)
(0.767827 -0.413443 0)
(1.02572 -0.00305344 0)
(1.02772 -0.0102136 0)
(1.03121 -0.0164109 0)
(1.03589 -0.0235717 0)
(1.04181 -0.0307608 0)
(1.04858 -0.0388 0)
(1.05611 -0.0475329 0)
(1.06418 -0.0572276 0)
(1.07262 -0.0680236 0)
(1.08123 -0.0801636 0)
(1.08981 -0.0939266 0)
(1.0981 -0.109647 0)
(1.10577 -0.127685 0)
(1.11234 -0.148389 0)
(1.11715 -0.17201 0)
(1.11951 -0.198682 0)
(1.11869 -0.22835 0)
(1.11389 -0.260665 0)
(1.10438 -0.295127 0)
(1.08928 -0.330979 0)
(1.06738 -0.366786 0)
(1.0387 -0.40021 0)
(1.00598 -0.426499 0)
(0.971697 -0.440435 0)
(0.937545 -0.449369 0)
(0.897698 -0.467992 0)
(0.841762 -0.480825 0)
(0.786583 -0.47786 0)
(0.748889 -0.47252 0)
(1.02624 -0.00305206 0)
(1.02829 -0.0101886 0)
(1.03185 -0.0163635 0)
(1.03663 -0.0234848 0)
(1.0427 -0.0306125 0)
(1.04964 -0.0385793 0)
(1.0574 -0.0472126 0)
(1.06577 -0.0567891 0)
(1.07459 -0.0674449 0)
(1.08369 -0.0794257 0)
(1.09291 -0.0930241 0)
(1.10205 -0.108603 0)
(1.11081 -0.12657 0)
(1.11877 -0.147351 0)
(1.12532 -0.1713 0)
(1.12977 -0.198668 0)
(1.13143 -0.229578 0)
(1.12945 -0.263876 0)
(1.1229 -0.301232 0)
(1.11074 -0.341158 0)
(1.0917 -0.382416 0)
(1.06469 -0.423215 0)
(1.02858 -0.464218 0)
(0.982202 -0.509391 0)
(0.924779 -0.552421 0)
(0.859533 -0.569122 0)
(0.806796 -0.562171 0)
(0.770124 -0.557858 0)
(0.72642 -0.54586 0)
(1.02671 -0.00304938 0)
(1.02879 -0.0101605 0)
(1.03241 -0.0163119 0)
(1.03728 -0.0233921 0)
(1.04348 -0.0304587 0)
(1.05057 -0.0383527 0)
(1.05855 -0.0468852 0)
(1.06717 -0.056341 0)
(1.07632 -0.0668494 0)
(1.08586 -0.0786568 0)
(1.09566 -0.0920629 0)
(1.10556 -0.107453 0)
(1.11532 -0.125268 0)
(1.12456 -0.146 0)
(1.13276 -0.170089 0)
(1.13924 -0.197889 0)
(1.14334 -0.229674 0)
(1.14426 -0.265502 0)
(1.14096 -0.305224 0)
(1.13223 -0.348568 0)
(1.1167 -0.39489 0)
(1.09297 -0.443034 0)
(1.06063 -0.490253 0)
(1.02164 -0.529134 0)
(0.97739 -0.551802 0)
(0.929422 -0.573638 0)
(0.86801 -0.611874 0)
(0.783615 -0.628243 0)
(0.707688 -0.621026 0)
(1.02713 -0.00304581 0)
(1.02924 -0.0101309 0)
(1.03292 -0.0162584 0)
(1.03786 -0.0232974 0)
(1.04418 -0.0303047 0)
(1.0514 -0.0381271 0)
(1.05956 -0.0465605 0)
(1.06841 -0.0558968 0)
(1.07785 -0.0662561 0)
(1.08777 -0.077884 0)
(1.09808 -0.0910822 0)
(1.10866 -0.10625 0)
(1.11932 -0.123858 0)
(1.12975 -0.144442 0)
(1.13948 -0.168519 0)
(1.14789 -0.196535 0)
(1.15433 -0.22888 0)
(1.1581 -0.265792 0)
(1.15819 -0.307341 0)
(1.15323 -0.353466 0)
(1.14177 -0.403882 0)
(1.12273 -0.45791 0)
(1.09409 -0.514027 0)
(1.0517 -0.573384 0)
(0.99443 -0.643885 0)
(0.920301 -0.71405 0)
(0.82821 -0.73835 0)
(0.748075 -0.73093 0)
(0.686513 -0.729242 0)
(1.0275 -0.00304165 0)
(1.02964 -0.0101009 0)
(1.03337 -0.0162047 0)
(1.03838 -0.0232035 0)
(1.04479 -0.0301541 0)
(1.05213 -0.0379077 0)
(1.06045 -0.0462458 0)
(1.06949 -0.0554668 0)
(1.0792 -0.0656796 0)
(1.08945 -0.0771285 0)
(1.1002 -0.0901126 0)
(1.11139 -0.10504 0)
(1.12286 -0.122402 0)
(1.13437 -0.142769 0)
(1.14549 -0.16672 0)
(1.15568 -0.194779 0)
(1.16434 -0.227426 0)
(1.17082 -0.265037 0)
(1.17427 -0.307888 0)
(1.17329 -0.35616 0)
(1.16627 -0.409799 0)
(1.15222 -0.468854 0)
(1.12951 -0.533393 0)
(1.09533 -0.600364 0)
(1.04991 -0.658249 0)
(0.993406 -0.694474 0)
(0.926758 -0.743603 0)
(0.829758 -0.821829 0)
(0.690536 -0.835138 0)
(1.02783 -0.00303716 0)
(1.02999 -0.0100713 0)
(1.03376 -0.0161523 0)
(1.03883 -0.0231126 0)
(1.04533 -0.0300099 0)
(1.05277 -0.0376984 0)
(1.06123 -0.0459464 0)
(1.07045 -0.0550578 0)
(1.08037 -0.06513 0)
(1.09092 -0.0764046 0)
(1.10206 -0.0891758 0)
(1.11377 -0.103856 0)
(1.12597 -0.120949 0)
(1.13843 -0.141054 0)
(1.15081 -0.164795 0)
(1.16263 -0.192762 0)
(1.17335 -0.225507 0)
(1.1824 -0.263505 0)
(1.189 -0.307179 0)
(1.19199 -0.356966 0)
(1.18971 -0.413101 0)
(1.18099 -0.475815 0)
(1.16529 -0.54589 0)
(1.13865 -0.622917 0)
(1.09066 -0.707806 0)
(1.02263 -0.818929 0)
(0.935643 -0.947479 0)
(0.792078 -0.997455 0)
(0.628579 -0.984454 0)
(1.02812 -0.00303255 0)
(1.0303 -0.0100428 0)
(1.03411 -0.016102 0)
(1.03923 -0.0230262 0)
(1.0458 -0.0298741 0)
(1.05333 -0.0375017 0)
(1.06191 -0.0456659 0)
(1.07128 -0.054675 0)
(1.0814 -0.0646145 0)
(1.0922 -0.0757232 0)
(1.10368 -0.0882881 0)
(1.11586 -0.102722 0)
(1.12868 -0.119538 0)
(1.14199 -0.139355 0)
(1.1555 -0.162833 0)
(1.16878 -0.190608 0)
(1.18139 -0.223295 0)
(1.1928 -0.261445 0)
(1.20234 -0.305567 0)
(1.20903 -0.356275 0)
(1.21158 -0.41418 0)
(1.20854 -0.479608 0)
(1.19913 -0.55364 0)
(1.18186 -0.639606 0)
(1.15185 -0.736687 0)
(1.10504 -0.823117 0)
(1.03371 -0.878212 0)
(0.941722 -0.995216 0)
(0.760554 -1.16422 0)
(1.02838 -0.00302796 0)
(1.03058 -0.0100158 0)
(1.03441 -0.0160547 0)
(1.03958 -0.0229453 0)
(1.04622 -0.0297478 0)
(1.05383 -0.0373192 0)
(1.06251 -0.0454064 0)
(1.07201 -0.0543209 0)
(1.08229 -0.0641372 0)
(1.09331 -0.0750903 0)
(1.10509 -0.0874594 0)
(1.11766 -0.101655 0)
(1.13104 -0.118196 0)
(1.14509 -0.137713 0)
(1.1596 -0.160894 0)
(1.17419 -0.188412 0)
(1.18847 -0.220924 0)
(1.20205 -0.259044 0)
(1.21428 -0.303337 0)
(1.22432 -0.354478 0)
(1.23142 -0.413407 0)
(1.23423 -0.480817 0)
(1.23127 -0.557434 0)
(1.22375 -0.647114 0)
(1.20894 -0.752348 0)
(1.16234 -0.865733 0)
(1.08634 -1.0338 0)
(1.00151 -1.30546 0)
(0.695344 -1.36212 0)
(0.998679 -0.00450007 0)
(0.998684 -0.0043585 0)
(0.998548 -0.00422267 0)
(0.998255 -0.00409299 0)
(0.997785 -0.00397051 0)
(0.997116 -0.00385636 0)
(0.996226 -0.00375211 0)
(0.995106 -0.00365964 0)
(0.993761 -0.00358092 0)
(0.992224 -0.00351763 0)
(0.990556 -0.00347073 0)
(0.988849 -0.00343991 0)
(0.987222 -0.00342313 0)
(0.985806 -0.00341629 0)
(0.984733 -0.00341327 0)
(0.984109 -0.00340631 0)
(0.984003 -0.00338685 0)
(0.984424 -0.00334673 0)
(0.985324 -0.0032795 0)
(0.997389 -0.00858737 0)
(0.997521 -0.00852545 0)
(0.997799 -0.00845394 0)
(0.998243 -0.00837571 0)
(0.99888 -0.00829067 0)
(0.999743 -0.00819805 0)
(1.00086 -0.00809594 0)
(1.00223 -0.00798105 0)
(1.00387 -0.00784869 0)
(1.0057 -0.00769306 0)
(1.00766 -0.00750793 0)
(1.00962 -0.00728762 0)
(1.0114 -0.00702832 0)
(1.01285 -0.00672949 0)
(1.01378 -0.00639497 0)
(1.01409 -0.00603337 0)
(1.01369 -0.00565753 0)
(1.01262 -0.00528294 0)
(1.01099 -0.00492531 0)
(0.994662 -0.0137064 0)
(0.994457 -0.0133326 0)
(0.994159 -0.0129464 0)
(0.993743 -0.0125462 0)
(0.993173 -0.0121329 0)
(0.992408 -0.0117083 0)
(0.991406 -0.0112762 0)
(0.990131 -0.0108432 0)
(0.988564 -0.0104188 0)
(0.986717 -0.0100158 0)
(0.984643 -0.0096489 0)
(0.982445 -0.00933391 0)
(0.980275 -0.00908496 0)
(0.978321 -0.00891186 0)
(0.976787 -0.00881733 0)
(0.975853 -0.00879503 0)
(0.975643 -0.00882905 0)
(0.976195 -0.0088953 0)
(0.977442 -0.00896466 0)
(0.989834 -0.0220284 0)
(0.989667 -0.0217658 0)
(0.989605 -0.0215033 0)
(0.989683 -0.0212438 0)
(0.989949 -0.0209864 0)
(0.990463 -0.0207301 0)
(0.991294 -0.0204719 0)
(0.992505 -0.0202061 0)
(0.99414 -0.0199235 0)
(0.99621 -0.0196107 0)
(0.998664 -0.019251 0)
(1.00138 -0.0188253 0)
(1.00418 -0.018315 0)
(1.00679 -0.0177059 0)
(1.00892 -0.0169921 0)
(1.01029 -0.0161802 0)
(1.01069 -0.0152898 0)
(1.01002 -0.0143526 0)
(1.00832 -0.0134077 0)
(0.985382 -0.0280306 0)
(0.985168 -0.0273453 0)
(0.984881 -0.0266455 0)
(0.984495 -0.0259283 0)
(0.983969 -0.0251923 0)
(0.983245 -0.0244353 0)
(0.98225 -0.0236566 0)
(0.980902 -0.0228576 0)
(0.979125 -0.0220438 0)
(0.976868 -0.0212258 0)
(0.97413 -0.0204198 0)
(0.970986 -0.0196475 0)
(0.967609 -0.0189333 0)
(0.964269 -0.0183003 0)
(0.961314 -0.0177653 0)
(0.959113 -0.017333 0)
(0.957981 -0.0169932 0)
(0.958106 -0.0167203 0)
(0.959482 -0.0164774 0)
(0.977211 -0.0376772 0)
(0.976754 -0.0371044 0)
(0.976353 -0.0365171 0)
(0.976033 -0.035921 0)
(0.975835 -0.0353184 0)
(0.975826 -0.0347128 0)
(0.97609 -0.034108 0)
(0.976731 -0.0335062 0)
(0.977855 -0.0329069 0)
(0.979552 -0.0323044 0)
(0.981861 -0.0316859 0)
(0.984741 -0.0310307 0)
(0.988031 -0.0303111 0)
(0.99145 -0.0294961 0)
(0.994607 -0.0285576 0)
(0.997059 -0.0274785 0)
(0.998398 -0.026259 0)
(0.998343 -0.0249205 0)
(0.99682 -0.0235023 0)
(0.970553 -0.0464948 0)
(0.970078 -0.0454272 0)
(0.969576 -0.0443355 0)
(0.969036 -0.0432194 0)
(0.968432 -0.0420788 0)
(0.967718 -0.0409114 0)
(0.966824 -0.0397131 0)
(0.96565 -0.0384798 0)
(0.964076 -0.0372084 0)
(0.961975 -0.0358995 0)
(0.959241 -0.03456 0)
(0.955835 -0.033206 0)
(0.951834 -0.0318629 0)
(0.947467 -0.0305636 0)
(0.94313 -0.0293426 0)
(0.93934 -0.0282271 0)
(0.936642 -0.0272293 0)
(0.935469 -0.02634 0)
(0.936012 -0.0255306 0)
(0.960348 -0.057846 0)
(0.959405 -0.0569217 0)
(0.958515 -0.0559583 0)
(0.957686 -0.0549614 0)
(0.956938 -0.0539321 0)
(0.95631 -0.0528738 0)
(0.955864 -0.0517917 0)
(0.955693 -0.0506927 0)
(0.955919 -0.0495846 0)
(0.95668 -0.0484737 0)
(0.958106 -0.047362 0)
(0.960273 -0.0462434 0)
(0.963147 -0.045101 0)
(0.966535 -0.0439065 0)
(0.970063 -0.042624 0)
(0.97321 -0.0412187 0)
(0.975402 -0.0396681 0)
(0.976151 -0.0379712 0)
(0.975205 -0.0361509 0)
(0.951421 -0.0706057 0)
(0.950378 -0.0690748 0)
(0.949339 -0.0675027 0)
(0.948305 -0.0658925 0)
(0.947269 -0.0642483 0)
(0.94621 -0.062572 0)
(0.945089 -0.0608633 0)
(0.943834 -0.0591202 0)
(0.942341 -0.0573384 0)
(0.940467 -0.0555124 0)
(0.938053 -0.0536384 0)
(0.934957 -0.0517179 0)
(0.931115 -0.0497617 0)
(0.926615 -0.0477927 0)
(0.921758 -0.045844 0)
(0.917063 -0.0439521 0)
(0.913193 -0.0421451 0)
(0.910784 -0.0404329 0)
(0.910241 -0.0388027 0)
(0.939995 -0.084493 0)
(0.938332 -0.0831886 0)
(0.936753 -0.0818175 0)
(0.935259 -0.0803865 0)
(0.93386 -0.0788967 0)
(0.932575 -0.0773501 0)
(0.931438 -0.07575 0)
(0.930505 -0.074101 0)
(0.92986 -0.0724092 0)
(0.92962 -0.0706823 0)
(0.929925 -0.0689272 0)
(0.93091 -0.0671474 0)
(0.93265 -0.0653379 0)
(0.935088 -0.0634808 0)
(0.937969 -0.0615446 0)
(0.940823 -0.0594894 0)
(0.943028 -0.0572795 0)
(0.943969 -0.0548979 0)
(0.943238 -0.0523561 0)
(0.929328 -0.101528 0)
(0.927452 -0.0994303 0)
(0.925612 -0.0972623 0)
(0.923816 -0.0950271 0)
(0.922063 -0.0927267 0)
(0.920344 -0.0903618 0)
(0.918636 -0.0879319 0)
(0.916894 -0.0854357 0)
(0.915042 -0.0828706 0)
(0.912966 -0.0802325 0)
(0.910514 -0.0775171 0)
(0.907509 -0.0747227 0)
(0.903801 -0.071855 0)
(0.899342 -0.0689331 0)
(0.894287 -0.0659922 0)
(0.889054 -0.0630801 0)
(0.884316 -0.0602444 0)
(0.880844 -0.0575152 0)
(0.879244 -0.0548929 0)
(0.916578 -0.117998 0)
(0.913903 -0.116117 0)
(0.911337 -0.114114 0)
(0.908872 -0.111997 0)
(0.906511 -0.109774 0)
(0.904264 -0.107453 0)
(0.902151 -0.105041 0)
(0.900206 -0.102547 0)
(0.898485 -0.0999822 0)
(0.897074 -0.0973586 0)
(0.896094 -0.094689 0)
(0.895694 -0.0919846 0)
(0.896014 -0.0892502 0)
(0.897118 -0.0864769 0)
(0.898903 -0.0836352 0)
(0.90102 -0.0806751 0)
(0.902874 -0.0775374 0)
(0.903753 -0.0741775 0)
(0.90308 -0.0705905 0)
(0.903912 -0.138933 0)
(0.900766 -0.136074 0)
(0.897691 -0.133093 0)
(0.894709 -0.130002 0)
(0.891834 -0.126797 0)
(0.889066 -0.123481 0)
(0.886398 -0.120051 0)
(0.883808 -0.116506 0)
(0.881248 -0.112846 0)
(0.878638 -0.109067 0)
(0.875854 -0.105165 0)
(0.872724 -0.101137 0)
(0.869049 -0.0969838 0)
(0.864668 -0.0927209 0)
(0.859557 -0.0883871 0)
(0.853958 -0.0840491 0)
(0.848463 -0.0797928 0)
(0.843931 -0.0756949 0)
(0.841214 -0.0717882 0)
(0.889497 -0.15875 0)
(0.885342 -0.155935 0)
(0.881352 -0.152903 0)
(0.877515 -0.149663 0)
(0.873827 -0.14624 0)
(0.870301 -0.142654 0)
(0.866944 -0.138924 0)
(0.863775 -0.135071 0)
(0.860824 -0.131116 0)
(0.858143 -0.127081 0)
(0.85582 -0.122991 0)
(0.853984 -0.118873 0)
(0.852802 -0.114749 0)
(0.85244 -0.110631 0)
(0.852972 -0.106508 0)
(0.854253 -0.102326 0)
(0.855808 -0.0979968 0)
(0.856863 -0.0934186 0)
(0.856583 -0.0885329 0)
(0.874232 -0.183697 0)
(0.869189 -0.179728 0)
(0.864295 -0.175523 0)
(0.859584 -0.17112 0)
(0.855093 -0.166513 0)
(0.850827 -0.161704 0)
(0.846795 -0.156703 0)
(0.842994 -0.151515 0)
(0.839402 -0.14615 0)
(0.835979 -0.140619 0)
(0.832642 -0.134928 0)
(0.829259 -0.129082 0)
(0.825632 -0.123083 0)
(0.821524 -0.116942 0)
(0.816725 -0.110691 0)
(0.811206 -0.104406 0)
(0.805311 -0.0982122 0)
(0.799869 -0.0922645 0)
(0.796028 -0.0866867 0)
(0.85746 -0.208446 0)
(0.851005 -0.204115 0)
(0.844805 -0.199368 0)
(0.83891 -0.194244 0)
(0.833293 -0.188779 0)
(0.827995 -0.183033 0)
(0.823028 -0.177042 0)
(0.818406 -0.170858 0)
(0.814151 -0.164528 0)
(0.810285 -0.1581 0)
(0.806854 -0.151628 0)
(0.803933 -0.145167 0)
(0.801657 -0.138776 0)
(0.800216 -0.132509 0)
(0.799828 -0.126403 0)
(0.800613 -0.120445 0)
(0.802388 -0.114546 0)
(0.804465 -0.108537 0)
(0.805698 -0.102237 0)
(0.838795 -0.238624 0)
(0.830678 -0.232812 0)
(0.82297 -0.226564 0)
(0.815589 -0.219857 0)
(0.808678 -0.212763 0)
(0.802245 -0.205278 0)
(0.796321 -0.197457 0)
(0.790937 -0.189342 0)
(0.786086 -0.180979 0)
(0.781763 -0.17242 0)
(0.777921 -0.163707 0)
(0.774475 -0.154882 0)
(0.771271 -0.145974 0)
(0.768064 -0.137005 0)
(0.764521 -0.128002 0)
(0.760301 -0.119023 0)
(0.75528 -0.110208 0)
(0.749913 -0.101794 0)
(0.745482 -0.0940835 0)
(0.818478 -0.270571 0)
(0.808256 -0.263926 0)
(0.798329 -0.25631 0)
(0.78908 -0.24804 0)
(0.780432 -0.239077 0)
(0.772472 -0.229572 0)
(0.765274 -0.219612 0)
(0.758843 -0.209293 0)
(0.753228 -0.198735 0)
(0.748427 -0.188043 0)
(0.744458 -0.177344 0)
(0.741331 -0.16676 0)
(0.739095 -0.156423 0)
(0.737862 -0.146467 0)
(0.737847 -0.137025 0)
(0.739358 -0.128199 0)
(0.74263 -0.119997 0)
(0.747432 -0.112264 0)
(0.752574 -0.10461 0)
(0.795846 -0.309029 0)
(0.782417 -0.300146 0)
(0.769984 -0.290526 0)
(0.758207 -0.279808 0)
(0.747347 -0.268243 0)
(0.73755 -0.255906 0)
(0.72882 -0.242896 0)
(0.721291 -0.229392 0)
(0.714957 -0.215512 0)
(0.709858 -0.201421 0)
(0.70596 -0.187255 0)
(0.70321 -0.173152 0)
(0.701485 -0.159227 0)
(0.700576 -0.145572 0)
(0.700131 -0.132251 0)
(0.69961 -0.119314 0)
(0.698335 -0.106866 0)
(0.695863 -0.0951231 0)
(0.692782 -0.0846423 0)
(0.771208 -0.351354 0)
(0.754379 -0.341338 0)
(0.738116 -0.329234 0)
(0.72301 -0.315713 0)
(0.709326 -0.300899 0)
(0.697006 -0.284887 0)
(0.686372 -0.26802 0)
(0.677387 -0.250434 0)
(0.670183 -0.23242 0)
(0.664741 -0.214202 0)
(0.661075 -0.196046 0)
(0.659137 -0.17821 0)
(0.658888 -0.16097 0)
(0.660296 -0.144608 0)
(0.663413 -0.12942 0)
(0.668457 -0.115707 0)
(0.675903 -0.103703 0)
(0.68624 -0.0935707 0)
(0.699271 -0.084781 0)
(0.74429 -0.402563 0)
(0.722148 -0.389429 0)
(0.701193 -0.374156 0)
(0.682091 -0.357008 0)
(0.664544 -0.337756 0)
(0.64931 -0.317132 0)
(0.636228 -0.295151 0)
(0.625618 -0.272299 0)
(0.617447 -0.248843 0)
(0.611809 -0.22513 0)
(0.608652 -0.201481 0)
(0.607942 -0.17821 0)
(0.609555 -0.155614 0)
(0.6133 -0.133956 0)
(0.618846 -0.113451 0)
(0.625622 -0.0942276 0)
(0.632621 -0.0764602 0)
(0.638465 -0.0600868 0)
(0.641169 -0.0458559 0)
(0.716402 -0.460447 0)
(0.687069 -0.444591 0)
(0.660451 -0.426135 0)
(0.635354 -0.403826 0)
(0.613481 -0.379487 0)
(0.594314 -0.352757 0)
(0.578498 -0.32452 0)
(0.565897 -0.295115 0)
(0.55672 -0.265001 0)
(0.550873 -0.234631 0)
(0.548406 -0.20441 0)
(0.549225 -0.174779 0)
(0.553273 -0.146195 0)
(0.560443 -0.119167 0)
(0.570641 -0.0942632 0)
(0.583849 -0.0721972 0)
(0.600443 -0.0534597 0)
(0.62082 -0.0392883 0)
(0.647893 -0.0294331 0)
(0.683817 -0.528418 0)
(0.647783 -0.510547 0)
(0.612353 -0.48553 0)
(0.581372 -0.457794 0)
(0.553738 -0.426078 0)
(0.530598 -0.391947 0)
(0.511624 -0.355987 0)
(0.497154 -0.318683 0)
(0.486894 -0.280732 0)
(0.481005 -0.2425 0)
(0.479307 -0.204475 0)
(0.481855 -0.167083 0)
(0.488592 -0.130795 0)
(0.499475 -0.096119 0)
(0.514333 -0.0636265 0)
(0.532785 -0.033655 0)