/*--------------------------------*- C++ -*----------------------------------*\
  =========                 |
  \\      /  F ield         | OpenFOAM: The Open Source CFD Toolbox
   \\    /   O peration     | Website:  https://openfoam.org
    \\  /    A nd           | Version:  10
     \\/     M anipulation  |
\*---------------------------------------------------------------------------*/
FoamFile
{
    format      ascii;
    class       volVectorField;
    location    "0";
    object      U;
}
// * * * * * * * * * * * * * * * * * * * * * * * * * * * * * * * * * * * * * //

dimensions      [0 1 -1 0 0 0 0];

internalField   nonuniform List<vector> 
18483
(
(0.999993 -0.000222216 0)
(0.999994 -0.000791403 0)
(0.999995 -0.0012554 0)
(0.999997 -0.00175003 0)
(0.999999 -0.00221435 0)
(1 -0.00265782 0)
(1 -0.00306188 0)
(1.00001 -0.00341456 0)
(1.00001 -0.00370538 0)
(1.00001 -0.00392934 0)
(1.00001 -0.00408942 0)
(1.00001 -0.00419799 0)
(1 -0.0042741 0)
(0.999988 -0.00435575 0)
(0.999967 -0.00448367 0)
(0.999927 -0.00468629 0)
(0.999816 -0.00492746 0)
(0.999416 -0.00511184 0)
(0.998146 -0.00515567 0)
(0.995285 -0.00500004 0)
(0.991188 -0.00469672 0)
(0.988034 -0.00440045 0)
(0.98777 -0.00415385 0)
(0.989903 -0.00388189 0)
(0.992672 -0.00357522 0)
(0.994972 -0.00327559 0)
(0.996567 -0.00300808 0)
(0.997585 -0.00278071 0)
(0.998211 -0.00259208 0)
(1.00069 -0.000661768 0)
(1.00071 -0.00234426 0)
(1.00077 -0.00371753 0)
(1.00082 -0.00518539 0)
(1.00087 -0.00656049 0)
(1.0009 -0.00787724 0)
(1.00089 -0.00907851 0)
(1.00084 -0.0101315 0)
(1.00075 -0.0110051 0)
(1.00062 -0.0116827 0)
(1.00046 -0.0121609 0)
(1.0003 -0.0124544 0)
(1.00017 -0.0125783 0)
(1.00009 -0.0124935 0)
(1.00007 -0.0121374 0)
(1.00007 -0.0114564 0)
(1.00003 -0.0105166 0)
(1.00004 -0.00952997 0)
(1.00064 -0.00871548 0)
(1.00276 -0.00827483 0)
(1.00653 -0.00822221 0)
(1.00977 -0.00825904 0)
(1.00986 -0.00819094 0)
(1.00707 -0.00813386 0)
(1.00367 -0.0081392 0)
(1.00105 -0.00814287 0)
(0.999351 -0.00811288 0)
(0.998324 -0.00804704 0)
(0.997712 -0.00795467 0)
(1.00197 -0.00103327 0)
(1.00205 -0.00365017 0)
(1.00223 -0.00581303 0)
(1.00239 -0.00815906 0)
(1.00256 -0.0103904 0)
(1.00265 -0.0125728 0)
(1.00266 -0.0146086 0)
(1.00255 -0.0164421 0)
(1.00231 -0.0180086 0)
(1.00196 -0.019265 0)
(1.00152 -0.0201857 0)
(1.00101 -0.0207626 0)
(1.00049 -0.0210075 0)
(0.99997 -0.0209745 0)
(0.999406 -0.0208122 0)
(0.998748 -0.0207407 0)
(0.99799 -0.0208383 0)
(0.99708 -0.0209454 0)
(0.99565 -0.0208292 0)
(0.992939 -0.0203389 0)
(0.988723 -0.0195108 0)
(0.984796 -0.0186582 0)
(0.983853 -0.0180143 0)
(0.985922 -0.0173974 0)
(0.988701 -0.0166795 0)
(0.990767 -0.0159634 0)
(0.992031 -0.0153228 0)
(0.992759 -0.0147757 0)
(0.993175 -0.0143198 0)
(1.00349 -0.00132753 0)
(1.00366 -0.00468442 0)
(1.00398 -0.00750083 0)
(1.00432 -0.0106095 0)
(1.00465 -0.0136276 0)
(1.00488 -0.0166528 0)
(1.00496 -0.0195515 0)
(1.00482 -0.0222447 0)
(1.00445 -0.0246298 0)
(1.00384 -0.0266323 0)
(1.00303 -0.0282021 0)
(1.00206 -0.029316 0)
(1.00097 -0.0299984 0)
(0.999831 -0.0303359 0)
(0.998674 -0.0303962 0)
(0.997558 -0.0300527 0)
(0.996521 -0.0291645 0)
(0.995628 -0.0278755 0)
(0.995392 -0.0265277 0)
(0.99708 -0.025373 0)
(1.00138 -0.0244419 0)
(1.00586 -0.0235281 0)
(1.00644 -0.0225092 0)
(1.00281 -0.0216874 0)
(0.998271 -0.021234 0)
(0.994915 -0.0209594 0)
(0.992783 -0.0207191 0)
(0.991444 -0.0204729 0)
(0.990575 -0.0202139 0)
(1.00506 -0.00155838 0)
(1.00534 -0.00549412 0)
(1.00583 -0.00883842 0)
(1.0064 -0.0125871 0)
(1.00697 -0.0162956 0)
(1.0074 -0.020094 0)
(1.00762 -0.0238239 0)
(1.00754 -0.0273891 0)
(1.00709 -0.0306508 0)
(1.00628 -0.0334957 0)
(1.00514 -0.035834 0)
(1.00373 -0.0376153 0)
(1.00214 -0.0388402 0)
(1.00048 -0.0395411 0)
(0.998837 -0.0397832 0)
(0.997265 -0.0397355 0)
(0.995704 -0.0396932 0)
(0.994038 -0.039824 0)
(0.991781 -0.0399438 0)
(0.987701 -0.0397755 0)
(0.980987 -0.0392401 0)
(0.974137 -0.0385289 0)
(0.972013 -0.0378411 0)
(0.975158 -0.0369473 0)
(0.979295 -0.0356885 0)
(0.981912 -0.0343487 0)
(0.983243 -0.0331372 0)
(0.983879 -0.0320982 0)
(0.984164 -0.0312327 0)
(1.00663 -0.00173922 0)
(1.00704 -0.00612313 0)
(1.00774 -0.00988254 0)
(1.00858 -0.0141468 0)
(1.00944 -0.0184282 0)
(1.01017 -0.0228927 0)
(1.01064 -0.0273698 0)
(1.0107 -0.0317539 0)
(1.01029 -0.0358737 0)
(1.00937 -0.039576 0)
(1.00795 -0.0427274 0)
(1.0061 -0.04524 0)
(1.00393 -0.047075 0)
(1.00155 -0.0482135 0)
(0.999079 -0.0486795 0)
(0.996577 -0.0484962 0)
(0.994131 -0.0475628 0)
(0.991897 -0.0458194 0)
(0.990493 -0.0435592 0)
(0.991522 -0.0413187 0)
(0.996268 -0.0394822 0)
(1.00184 -0.0380597 0)
(1.00203 -0.0367983 0)
(0.995829 -0.0358173 0)
(0.988713 -0.0353232 0)
(0.98405 -0.035016 0)
(0.981336 -0.0346561 0)
(0.979674 -0.03423 0)
(0.978587 -0.0337524 0)
(1.00818 -0.00187809 0)
(1.00873 -0.00659925 0)
(1.00966 -0.0106732 0)
(1.0108 -0.0153349 0)
(1.01201 -0.0200684 0)
(1.01311 -0.0250811 0)
(1.0139 -0.0302016 0)
(1.01423 -0.0353269 0)
(1.01395 -0.040268 0)
(1.01298 -0.0448464 0)
(1.01133 -0.0488949 0)
(1.00904 -0.0522815 0)
(1.00624 -0.0549238 0)
(1.00311 -0.0567804 0)
(0.999765 -0.0578833 0)
(0.996347 -0.0583697 0)
(0.992959 -0.0585971 0)
(0.989628 -0.0590049 0)
(0.986025 -0.0596226 0)
(0.98073 -0.0599834 0)
(0.972151 -0.0595537 0)
(0.962745 -0.058225 0)
(0.959272 -0.0565049 0)
(0.963284 -0.0546493 0)
(0.96835 -0.0524736 0)
(0.970667 -0.0502567 0)
(0.971252 -0.0483036 0)
(0.97117 -0.0466297 0)
(0.970821 -0.0452222 0)
(1.00971 -0.00198123 0)
(1.0104 -0.00694581 0)
(1.01155 -0.0112486 0)
(1.01301 -0.016205 0)
(1.0146 -0.0212833 0)
(1.01611 -0.026736 0)
(1.0173 -0.0324027 0)
(1.01797 -0.0381973 0)
(1.01792 -0.0439294 0)
(1.01704 -0.0494054 0)
(1.01528 -0.0544172 0)
(1.01269 -0.0587697 0)
(1.00942 -0.0623122 0)
(1.00564 -0.0649437 0)
(1.00151 -0.0666235 0)
(0.997201 -0.0673223 0)
(0.99293 -0.0669458 0)
(0.988994 -0.0652773 0)
(0.985911 -0.0623675 0)
(0.984977 -0.058924 0)
(0.987903 -0.0559445 0)
(0.992845 -0.0541096 0)
(0.992626 -0.0530247 0)
(0.984423 -0.0520168 0)
(0.974908 -0.0512983 0)
(0.969059 -0.0507873 0)
(0.965739 -0.0501452 0)
(0.963546 -0.0494008 0)
(0.961993 -0.0485972 0)
(1.01117 -0.00205514 0)
(1.012 -0.00718707 0)
(1.01338 -0.0116496 0)
(1.01515 -0.0168177 0)
(1.01714 -0.0221528 0)
(1.01908 -0.0279547 0)
(1.02073 -0.0340833 0)
(1.02182 -0.0404805 0)
(1.02214 -0.046965 0)
(1.02149 -0.0533347 0)
(1.0198 -0.05935 0)
(1.01706 -0.064772 0)
(1.01336 -0.0694045 0)
(1.00884 -0.0731112 0)
(1.00369 -0.0758408 0)
(0.998092 -0.0776207 0)
(0.992271 -0.0786835 0)
(0.986415 -0.0795691 0)
(0.980469 -0.0807227 0)
(0.9736 -0.081843 0)
(0.96419 -0.0819283 0)
(0.953342 -0.0802193 0)
(0.947506 -0.07728 0)
(0.950158 -0.0743222 0)
(0.954809 -0.0713805 0)
(0.956068 -0.0683246 0)
(0.955389 -0.0656117 0)
(0.954303 -0.0632835 0)
(0.953115 -0.0612967 0)
(1.01254 -0.00210632 0)
(1.0135 -0.00734695 0)
(1.0151 -0.0119161 0)
(1.01718 -0.0172317 0)
(1.01955 -0.0227537 0)
(1.02195 -0.0288295 0)
(1.0241 -0.0353447 0)
(1.0257 -0.0422765 0)
(1.02649 -0.049464 0)
(1.02622 -0.0567161 0)
(1.02474 -0.0637886 0)
(1.02197 -0.0704235 0)
(1.01797 -0.0763783 0)
(1.01289 -0.0814385 0)
(1.00697 -0.0854487 0)
(1.00051 -0.0882697 0)
(0.993869 -0.0897325 0)
(0.987468 -0.0895096 0)
(0.981794 -0.0873026 0)
(0.977684 -0.0835471 0)
(0.976759 -0.0795729 0)
(0.979092 -0.0768257 0)
(0.978811 -0.0756346 0)
(0.970419 -0.0746314 0)
(0.959049 -0.0734112 0)
(0.951704 -0.0725112 0)
(0.947518 -0.0715162 0)
(0.944475 -0.0703475 0)
(0.942176 -0.0691337 0)
(1.0138 -0.0021405 0)
(1.01488 -0.00744624 0)
(1.01668 -0.0120823 0)
(1.01906 -0.0174963 0)
(1.02181 -0.0231492 0)
(1.02467 -0.0294345 0)
(1.02735 -0.0362666 0)
(1.02953 -0.0436628 0)
(1.03088 -0.0514971 0)
(1.03111 -0.0596072 0)
(1.03001 -0.0677589 0)
(1.02744 -0.0756731 0)
(1.02342 -0.0830435 0)
(1.01808 -0.089556 0)
(1.0116 -0.0949587 0)
(1.0042 -0.0990801 0)
(0.996105 -0.101905 0)
(0.987506 -0.103814 0)
(0.978581 -0.105575 0)
(0.969243 -0.107536 0)
(0.958598 -0.108913 0)
(0.946435 -0.108334 0)
(0.937002 -0.105291 0)
(0.93562 -0.101391 0)
(0.938555 -0.0978365 0)
(0.938666 -0.0940731 0)
(0.936474 -0.0905229 0)
(0.934199 -0.0875212 0)
(0.932031 -0.0849213 0)
(1.01494 -0.0021621 0)
(1.01613 -0.00750091 0)
(1.01813 -0.0121743 0)
(1.02078 -0.0176483 0)
(1.02391 -0.0233858 0)
(1.02723 -0.0298238 0)
(1.03045 -0.0369064 0)
(1.03324 -0.0446941 0)
(1.03523 -0.0531037 0)
(1.0361 -0.0620115 0)
(1.03557 -0.071201 0)
(1.03344 -0.0803862 0)
(1.02966 -0.0892354 0)
(1.02421 -0.0973993 0)
(1.01721 -0.104587 0)
(1.00885 -0.110583 0)
(0.999484 -0.115176 0)
(0.989678 -0.117956 0)
(0.980342 -0.118282 0)
(0.972426 -0.115968 0)
(0.967099 -0.111952 0)
(0.965417 -0.108125 0)
(0.964185 -0.106256 0)
(0.956313 -0.105471 0)
(0.94319 -0.103968 0)
(0.93327 -0.102505 0)
(0.927628 -0.101154 0)
(0.923352 -0.0994373 0)
(0.91997 -0.0976516 0)
(1.01598 -0.00217433 0)
(1.01727 -0.00752248 0)
(1.01944 -0.0122103 0)
(1.02236 -0.017714 0)
(1.02583 -0.0234968 0)
(1.0296 -0.0300365 0)
(1.03337 -0.0373057 0)
(1.03679 -0.0454069 0)
(1.03949 -0.054303 0)
(1.0411 -0.0639155 0)
(1.0413 -0.0740636 0)
(1.0398 -0.0844861 0)
(1.03644 -0.0948611 0)
(1.03114 -0.104811 0)
(1.02396 -0.113935 0)
(1.01512 -0.121824 0)
(1.00494 -0.128097 0)
(0.99377 -0.132545 0)
(0.981915 -0.135753 0)
(0.969512 -0.138889 0)
(0.956391 -0.142027 0)
(0.942088 -0.143548 0)
(0.928521 -0.141658 0)
(0.921125 -0.137207 0)
(0.920566 -0.132815 0)
(0.919461 -0.128519 0)
(0.915501 -0.124018 0)
(0.911572 -0.120194 0)
(0.908119 -0.116877 0)
(1.01691 -0.00217952 0)
(1.01829 -0.0075191 0)
(1.02063 -0.0122035 0)
(1.02378 -0.0177122 0)
(1.02758 -0.0235071 0)
(1.03178 -0.0301028 0)
(1.03608 -0.0374977 0)
(1.04014 -0.0458328 0)
(1.04357 -0.0551184 0)
(1.046 -0.0653283 0)
(1.04703 -0.0763343 0)
(1.04632 -0.087918 0)
(1.04363 -0.0997714 0)
(1.03881 -0.111489 0)
(1.03181 -0.122595 0)
(1.02269 -0.13262 0)
(1.01159 -0.141223 0)
(0.998858 -0.148094 0)
(0.985431 -0.152656 0)
(0.972831 -0.153984 0)
(0.962467 -0.15193 0)
(0.955609 -0.148089 0)
(0.951375 -0.145272 0)
(0.943376 -0.144571 0)
(0.928613 -0.143319 0)
(0.91462 -0.14107 0)
(0.906175 -0.139081 0)
(0.900051 -0.136608 0)
(0.894961 -0.13386 0)
(1.01775 -0.00217934 0)
(1.01921 -0.00749675 0)
(1.02169 -0.0121637 0)
(1.02507 -0.0176572 0)
(1.02917 -0.0234365 0)
(1.03377 -0.0300485 0)
(1.03857 -0.0375131 0)
(1.04326 -0.0460061 0)
(1.04744 -0.055585 0)
(1.05071 -0.0662787 0)
(1.05266 -0.0780178 0)
(1.05289 -0.0906332 0)
(1.05109 -0.103848 0)
(1.04702 -0.117276 0)
(1.04046 -0.130446 0)
(1.03131 -0.142838 0)
(1.0197 -0.153946 0)
(1.00613 -0.163173 0)
(0.991337 -0.170104 0)
(0.975798 -0.17553 0)
(0.959346 -0.18085 0)
(0.941787 -0.185413 0)
(0.923451 -0.186418 0)
(0.90837 -0.182562 0)
(0.901476 -0.176992 0)
(0.898304 -0.171983 0)
(0.892413 -0.166419 0)
(0.885891 -0.16123 0)
(0.880478 -0.156814 0)
(1.01851 -0.00217508 0)
(1.02004 -0.00745999 0)
(1.02265 -0.0120984 0)
(1.02622 -0.0175606 0)
(1.03061 -0.0233019 0)
(1.03558 -0.0298969 0)
(1.04085 -0.0373818 0)
(1.04614 -0.0459638 0)
(1.05105 -0.0557447 0)
(1.05518 -0.0668059 0)
(1.0581 -0.0791368 0)
(1.05939 -0.0926292 0)
(1.05866 -0.107063 0)
(1.05555 -0.122106 0)
(1.04974 -0.137303 0)
(1.04103 -0.152058 0)
(1.02943 -0.165759 0)
(1.01523 -0.177863 0)
(0.999003 -0.187827 0)
(0.981871 -0.194853 0)
(0.965681 -0.197664 0)
(0.952252 -0.196034 0)
(0.942273 -0.192867 0)
(0.932176 -0.191974 0)
(0.91582 -0.191756 0)
(0.896392 -0.189118 0)
(0.882454 -0.185996 0)
(0.873174 -0.182599 0)
(0.865298 -0.178376 0)
(1.01919 -0.00216779 0)
(1.02078 -0.00741259 0)
(1.02351 -0.0120142 0)
(1.02726 -0.0174322 0)
(1.0319 -0.023118 0)
(1.0372 -0.0296692 0)
(1.04292 -0.0371327 0)
(1.04877 -0.0457438 0)
(1.05438 -0.0556432 0)
(1.05936 -0.0669598 0)
(1.06328 -0.0797423 0)
(1.06569 -0.0939517 0)
(1.06613 -0.109437 0)
(1.06419 -0.125928 0)
(1.05945 -0.143006 0)
(1.05156 -0.160079 0)
(1.0403 -0.176538 0)
(1.02584 -0.191801 0)
(1.00881 -0.205044 0)
(0.990038 -0.215673 0)
(0.969889 -0.224675 0)
(0.948116 -0.233307 0)
(0.924345 -0.239437 0)
(0.900436 -0.238833 0)
(0.88336 -0.232747 0)
(0.875052 -0.226541 0)
(0.866788 -0.220101 0)
(0.856278 -0.212833 0)
(0.847372 -0.206532 0)
(1.0198 -0.00215834 0)
(1.02145 -0.00735773 0)
(1.02429 -0.0119167 0)
(1.02819 -0.0172811 0)
(1.03307 -0.0228983 0)
(1.03867 -0.029385 0)
(1.04479 -0.0367936 0)
(1.05116 -0.0453838 0)
(1.05744 -0.0553292 0)
(1.06324 -0.0668016 0)
(1.06814 -0.079906 0)
(1.07167 -0.0946742 0)
(1.07337 -0.111026 0)
(1.07274 -0.128758 0)
(1.06931 -0.147539 0)
(1.06253 -0.166841 0)
(1.05206 -0.186051 0)
(1.03798 -0.204532 0)
(1.02072 -0.221441 0)
(1.00081 -0.235775 0)
(0.979471 -0.24625 0)
(0.958912 -0.251046 0)
(0.940838 -0.250287 0)
(0.925027 -0.249071 0)
(0.906168 -0.250622 0)
(0.880843 -0.249694 0)
(0.857394 -0.245376 0)
(0.84178 -0.240843 0)
(0.829356 -0.234875 0)
(1.02036 -0.00214741 0)
(1.02206 -0.00729812 0)
(1.02499 -0.0118108 0)
(1.02903 -0.0171151 0)
(1.03411 -0.0226546 0)
(1.03999 -0.0290615 0)
(1.04648 -0.0363896 0)
(1.05333 -0.0449194 0)
(1.06022 -0.0548513 0)
(1.06679 -0.0663952 0)
(1.07263 -0.079706 0)
(1.07729 -0.0948813 0)
(1.08027 -0.111912 0)
(1.08106 -0.130675 0)
(1.07908 -0.150941 0)
(1.07373 -0.172273 0)
(1.06453 -0.194082 0)
(1.05136 -0.215759 0)
(1.03439 -0.236482 0)
(1.01393 -0.255081 0)
(0.990568 -0.270993 0)
(0.964472 -0.285473 0)
(0.935016 -0.298968 0)
(0.902281 -0.306885 0)
(0.871587 -0.304356 0)
(0.851676 -0.29674 0)
(0.83869 -0.289691 0)
(0.822889 -0.28055 0)
(0.807458 -0.27119 0)
(1.02087 -0.00213555 0)
(1.02261 -0.00723599 0)
(1.02562 -0.0117005 0)
(1.02979 -0.0169408 0)
(1.03505 -0.0223968 0)
(1.04117 -0.0287138 0)
(1.04799 -0.0359428 0)
(1.05528 -0.0443825 0)
(1.06274 -0.0542542 0)
(1.07003 -0.0658004 0)
(1.07677 -0.0792179 0)
(1.08251 -0.0946638 0)
(1.08677 -0.112202 0)
(1.089 -0.131786 0)
(1.08861 -0.15329 0)
(1.08493 -0.17639 0)
(1.07735 -0.20059 0)
(1.06554 -0.22535 0)
(1.04945 -0.249901 0)
(1.0292 -0.273063 0)
(1.00525 -0.293475 0)
(0.978962 -0.308943 0)
(0.952232 -0.316561 0)
(0.926835 -0.317968 0)
(0.90257 -0.321327 0)
(0.87227 -0.325881 0)
(0.836101 -0.323282 0)
(0.807403 -0.317354 0)
(0.787027 -0.310154 0)
(1.02133 -0.00212323 0)
(1.0231 -0.00717315 0)
(1.02619 -0.0115892 0)
(1.03046 -0.0167637 0)
(1.03589 -0.0221336 0)
(1.04222 -0.0283545 0)
(1.04935 -0.0354716 0)
(1.05703 -0.0437999 0)
(1.06501 -0.0535763 0)
(1.07297 -0.0650696 0)
(1.08054 -0.0785124 0)
(1.08732 -0.0941124 0)
(1.09282 -0.112003 0)
(1.0965 -0.13221 0)
(1.09774 -0.154702 0)
(1.09586 -0.179292 0)
(1.09015 -0.205607 0)
(1.08013 -0.233189 0)
(1.06555 -0.261342 0)
(1.04629 -0.288942 0)
(1.02241 -0.314719 0)
(0.99382 -0.338323 0)
(0.959724 -0.36139 0)
(0.919609 -0.382876 0)
(0.875282 -0.39327 0)
(0.835992 -0.388674 0)
(0.810301 -0.380842 0)
(0.787939 -0.37221 0)
(0.762049 -0.359276 0)
(1.02174 -0.00211079 0)
(1.02355 -0.00711105 0)
(1.0267 -0.0114794 0)
(1.03106 -0.0165881 0)
(1.03664 -0.0218717 0)
(1.04316 -0.0279937 0)
(1.05055 -0.0349916 0)
(1.05859 -0.0431944 0)
(1.06705 -0.05285 0)
(1.07562 -0.0642487 0)
(1.08397 -0.0776536 0)
(1.0917 -0.0933126 0)
(1.09839 -0.111423 0)
(1.10347 -0.132075 0)
(1.10634 -0.155324 0)
(1.10632 -0.181123 0)
(1.10266 -0.209225 0)
(1.09478 -0.239283 0)
(1.0822 -0.270724 0)
(1.06459 -0.302642 0)
(1.04178 -0.333946 0)
(1.01374 -0.362878 0)
(0.981328 -0.385686 0)
(0.946588 -0.398115 0)
(0.912253 -0.404613 0)
(0.876043 -0.416775 0)
(0.828495 -0.425265 0)
(0.777614 -0.420386 0)
(0.740435 -0.412589 0)
(1.0221 -0.00209855 0)
(1.02394 -0.00705086 0)
(1.02715 -0.0113732 0)
(1.03159 -0.0164174 0)
(1.0373 -0.0216165 0)
(1.04399 -0.0276397 0)
(1.05162 -0.0345152 0)
(1.05998 -0.0425845 0)
(1.06885 -0.0521024 0)
(1.07798 -0.0633766 0)
(1.08704 -0.0766958 0)
(1.09567 -0.0923392 0)
(1.10346 -0.110558 0)
(1.10988 -0.131503 0)
(1.11434 -0.155304 0)
(1.11619 -0.182037 0)
(1.11468 -0.211585 0)
(1.10914 -0.243733 0)
(1.09894 -0.278061 0)
(1.0836 -0.313836 0)
(1.06289 -0.350138 0)
(1.03597 -0.385654 0)
(1.00111 -0.420322 0)
(0.957525 -0.45717 0)
(0.904895 -0.49255 0)
(0.844287 -0.507745 0)
(0.791095 -0.501623 0)
(0.754262 -0.495082 0)
(0.71598 -0.482709 0)
(1.02242 -0.00208675 0)
(1.02429 -0.00699347 0)
(1.02755 -0.0112722 0)
(1.03206 -0.0162542 0)
(1.03788 -0.0213719 0)
(1.04471 -0.0272985 0)
(1.05255 -0.034052 0)
(1.06119 -0.041985 0)
(1.07045 -0.0513556 0)
(1.08007 -0.0624852 0)
(1.08978 -0.075684 0)
(1.09923 -0.0912555 0)
(1.10805 -0.109493 0)
(1.11573 -0.130606 0)
(1.1217 -0.154782 0)
(1.12538 -0.182203 0)
(1.12602 -0.212881 0)
(1.12292 -0.246724 0)
(1.11536 -0.283475 0)
(1.10275 -0.322578 0)
(1.08475 -0.363487 0)
(1.06034 -0.405441 0)
(1.02815 -0.446167 0)
(0.989335 -0.480092 0)
(0.945832 -0.500888 0)
(0.899631 -0.518488 0)
(0.844979 -0.547814 0)
(0.770158 -0.561269 0)
(0.696567 -0.552542 0)
(1.02271 -0.00207554 0)
(1.0246 -0.00693948 0)
(1.0279 -0.0111773 0)
(1.03247 -0.0161004 0)
(1.03839 -0.0211409 0)
(1.04535 -0.0269746 0)
(1.05337 -0.0336094 0)
(1.06226 -0.041407 0)
(1.07185 -0.0506264 0)
(1.08192 -0.0616 0)
(1.09221 -0.0746542 0)
(1.10241 -0.090113 0)
(1.11216 -0.108301 0)
(1.12102 -0.12948 0)
(1.12843 -0.153884 0)
(1.13384 -0.181782 0)
(1.13658 -0.213305 0)
(1.13589 -0.24846 0)
(1.13109 -0.287155 0)
(1.12155 -0.329036 0)
(1.10679 -0.373745 0)
(1.08601 -0.4209 0)
(1.05691 -0.469467 0)
(1.01621 -0.520359 0)
(0.963413 -0.580249 0)
(0.895887 -0.641686 0)
(0.809257 -0.666592 0)
(0.72896 -0.66011 0)
(0.669949 -0.655516 0)
(1.02296 -0.00206504 0)
(1.02487 -0.00688928 0)
(1.02821 -0.0110891 0)
(1.03283 -0.015957 0)
(1.03884 -0.0209253 0)
(1.0459 -0.0266711 0)
(1.05409 -0.0331922 0)
(1.0632 -0.0408584 0)
(1.07309 -0.0499276 0)
(1.08355 -0.0607404 0)
(1.09436 -0.0736354 0)
(1.10523 -0.0889541 0)
(1.11583 -0.107044 0)
(1.12576 -0.128209 0)
(1.1345 -0.152726 0)
(1.14153 -0.180927 0)
(1.14627 -0.213051 0)
(1.14794 -0.249183 0)
(1.14587 -0.289358 0)
(1.13956 -0.33345 0)
(1.12841 -0.381237 0)
(1.11153 -0.432785 0)
(1.08736 -0.488524 0)
(1.05375 -0.546536 0)
(1.01022 -0.597798 0)
(0.956738 -0.631833 0)
(0.89525 -0.674119 0)
(0.808703 -0.742038 0)
(0.679328 -0.757454 0)
(1.02319 -0.00205531 0)
(1.02511 -0.00684308 0)
(1.02848 -0.011008 0)
(1.03315 -0.0158248 0)
(1.03923 -0.0207263 0)
(1.04639 -0.0263897 0)
(1.05472 -0.0328039 0)
(1.06401 -0.0403448 0)
(1.07416 -0.0492679 0)
(1.08498 -0.0599206 0)
(1.09624 -0.0726499 0)
(1.10771 -0.0878112 0)
(1.11907 -0.105769 0)
(1.12998 -0.12686 0)
(1.13993 -0.151401 0)
(1.14846 -0.179767 0)
(1.15506 -0.212283 0)
(1.15898 -0.249114 0)
(1.15952 -0.290357 0)
(1.1564 -0.336092 0)
(1.14912 -0.386328 0)
(1.1365 -0.441106 0)
(1.11804 -0.501412 0)
(1.09148 -0.56808 0)
(1.0477 -0.642262 0)
(0.986574 -0.739777 0)
(0.908569 -0.858436 0)
(0.774085 -0.91406 0)
(0.612185 -0.903123 0)
(1.02339 -0.00204637 0)
(1.02532 -0.00680095 0)
(1.02872 -0.010934 0)
(1.03343 -0.0157039 0)
(1.03957 -0.0205442 0)
(1.04682 -0.0261315 0)
(1.05527 -0.0324462 0)
(1.06473 -0.0398695 0)
(1.0751 -0.0486533 0)
(1.08622 -0.0591508 0)
(1.09789 -0.0717141 0)
(1.10989 -0.0867099 0)
(1.12193 -0.104515 0)
(1.1337 -0.125492 0)
(1.14475 -0.149988 0)
(1.15465 -0.178414 0)
(1.16296 -0.211159 0)
(1.16897 -0.248462 0)
(1.17197 -0.290452 0)
(1.17182 -0.337308 0)
(1.16843 -0.389336 0)
(1.16041 -0.446566 0)
(1.14704 -0.510011 0)
(1.12874 -0.583824 0)
(1.10135 -0.668547 0)
(1.05906 -0.745885 0)
(0.996099 -0.798944 0)
(0.916506 -0.907043 0)
(0.749771 -1.07112 0)
(1.02356 -0.00203824 0)
(1.02551 -0.00676286 0)
(1.02893 -0.010867 0)
(1.03368 -0.0155945 0)
(1.03986 -0.0203791 0)
(1.04719 -0.0258966 0)
(1.05574 -0.0321199 0)
(1.06535 -0.0394341 0)
(1.07592 -0.0480874 0)
(1.08731 -0.058437 0)
(1.09933 -0.0708387 0)
(1.11179 -0.0856674 0)
(1.12444 -0.10331 0)
(1.13697 -0.124146 0)
(1.149 -0.148548 0)
(1.16014 -0.176955 0)
(1.16999 -0.209801 0)
(1.17791 -0.24739 0)
(1.1832 -0.289878 0)
(1.18576 -0.337443 0)
(1.18595 -0.390607 0)
(1.18265 -0.449651 0)
(1.17456 -0.515053 0)
(1.16453 -0.591201 0)
(1.15149 -0.682406 0)
(1.11303 -0.782878 0)
(1.0501 -0.932867 0)
(0.981955 -1.19655 0)
(0.699239 -1.2906 0)
(0.998587 -0.00243485 0)
(0.998819 -0.00229039 0)
(0.998944 -0.00214513 0)
(0.998966 -0.0019988 0)
(0.998881 -0.00185145 0)
(0.998673 -0.00170324 0)
(0.998321 -0.00155494 0)
(0.997795 -0.00140814 0)
(0.997061 -0.00126549 0)
(0.99609 -0.0011308 0)
(0.994862 -0.00100908 0)
(0.993376 -0.000906339 0)
(0.99166 -0.000829011 0)
(0.989778 -0.000783162 0)
(0.987833 -0.000773378 0)
(0.985961 -0.000801615 0)
(0.984319 -0.000866245 0)
(0.983068 -0.000961572 0)
(0.982345 -0.00107803 0)
(0.997342 -0.0078503 0)
(0.997103 -0.00774182 0)
(0.996957 -0.00763057 0)
(0.996902 -0.00751934 0)
(0.996948 -0.00740861 0)
(0.997123 -0.00729869 0)
(0.997465 -0.00718933 0)
(0.998026 -0.00707926 0)
(0.998865 -0.00696584 0)
(1.00004 -0.00684469 0)
(1.0016 -0.00670955 0)
(1.00356 -0.00655238 0)
(1.00589 -0.00636396 0)
(1.00852 -0.0061351 0)
(1.01128 -0.00585834 0)
(1.01398 -0.00552991 0)
(1.01637 -0.00515144 0)
(1.01819 -0.00473092 0)
(1.01924 -0.00428239 0)
(0.993415 -0.0139365 0)
(0.993561 -0.0135787 0)
(0.993638 -0.013212 0)
(0.993648 -0.012836 0)
(0.99358 -0.0124519 0)
(0.993412 -0.0120606 0)
(0.993108 -0.011663 0)
(0.992619 -0.0112607 0)
(0.991885 -0.0108564 0)
(0.990843 -0.0104534 0)
(0.989438 -0.0100563 0)
(0.987637 -0.00967065 0)
(0.98545 -0.00930223 0)
(0.982947 -0.00895611 0)
(0.980267 -0.00863523 0)
(0.977619 -0.00833901 0)
(0.975261 -0.00806242 0)
(0.973458 -0.00779593 0)
(0.97244 -0.00752662 0)
(0.989982 -0.019954 0)
(0.989532 -0.0196939 0)
(0.989172 -0.0194269 0)
(0.9889 -0.0191545 0)
(0.988727 -0.0188752 0)
(0.98868 -0.0185875 0)
(0.988802 -0.0182894 0)
(0.98915 -0.0179786 0)
(0.989789 -0.0176517 0)
(0.99079 -0.0173043 0)
(0.992209 -0.016931 0)
(0.994073 -0.016526 0)
(0.996354 -0.0160835 0)
(0.998953 -0.0155992 0)
(1.00169 -0.0150715 0)
(1.00431 -0.0145034 0)
(1.00652 -0.0139028 0)
(1.00805 -0.0132821 0)
(1.00865 -0.0126562 0)
(0.984274 -0.0305079 0)
(0.984292 -0.0298398 0)
(0.984238 -0.0291673 0)
(0.984113 -0.0284898 0)
(0.983904 -0.0278081 0)
(0.983583 -0.0271217 0)
(0.98311 -0.0264297 0)
(0.982426 -0.0257314 0)
(0.981464 -0.025026 0)
(0.980149 -0.0243128 0)
(0.97842 -0.0235917 0)
(0.976241 -0.0228629 0)
(0.973635 -0.0221264 0)
(0.970697 -0.0213816 0)
(0.967614 -0.0206263 0)
(0.964647 -0.0198562 0)
(0.962108 -0.0190648 0)
(0.960295 -0.0182449 0)
(0.95943 -0.0173901 0)
(0.977819 -0.0332557 0)
(0.977206 -0.032743 0)
(0.976671 -0.0321978 0)
(0.976204 -0.031623 0)
(0.975806 -0.0310172 0)
(0.975497 -0.0303796 0)
(0.975309 -0.0297103 0)
(0.975292 -0.0290092 0)
(0.975506 -0.0282769 0)
(0.976018 -0.0275144 0)
(0.976886 -0.0267228 0)
(0.978134 -0.0259042 0)
(0.979738 -0.025061 0)
(0.981595 -0.0241975 0)
(0.983525 -0.0233196 0)
(0.985279 -0.0224359 0)
(0.986584 -0.0215571 0)
(0.987196 -0.0206945 0)
(0.986964 -0.0198572 0)
(0.970383 -0.0440308 0)
(0.969896 -0.0429223 0)
(0.969345 -0.0417995 0)
(0.968733 -0.0406622 0)
(0.96805 -0.0395132 0)
(0.967275 -0.0383539 0)
(0.966375 -0.0371857 0)
(0.965306 -0.0360102 0)
(0.964014 -0.0348292 0)
(0.96244 -0.0336448 0)
(0.960537 -0.0324601 0)
(0.958285 -0.0312785 0)
(0.95572 -0.0301045 0)
(0.952951 -0.0289422 0)
(0.950171 -0.0277949 0)
(0.947643 -0.0266631 0)
(0.945658 -0.0255436 0)
(0.944463 -0.0244293 0)
(0.944196 -0.0233113 0)
(0.960811 -0.0477774 0)
(0.959804 -0.0469411 0)
(0.958872 -0.0460584 0)
(0.958004 -0.0451355 0)
(0.957207 -0.0441728 0)
(0.956497 -0.0431722 0)
(0.955906 -0.0421369 0)
(0.955482 -0.0410705 0)
(0.955286 -0.0399769 0)
(0.955384 -0.0388597 0)
(0.955837 -0.0377212 0)
(0.956678 -0.0365611 0)
(0.957888 -0.0353761 0)
(0.959371 -0.0341595 0)
(0.960946 -0.0329025 0)
(0.962356 -0.0315971 0)
(0.963315 -0.0302395 0)
(0.963578 -0.0288336 0)
(0.963009 -0.0273907 0)
(0.951974 -0.0596016 0)
(0.950862 -0.0580116 0)
(0.949723 -0.0563919 0)
(0.948567 -0.0547433 0)
(0.947394 -0.0530703 0)
(0.946197 -0.0513752 0)
(0.944957 -0.0496598 0)
(0.943641 -0.0479257 0)
(0.942204 -0.0461747 0)
(0.940585 -0.0444089 0)
(0.938721 -0.0426322 0)
(0.936563 -0.0408518 0)
(0.9341 -0.0390794 0)
(0.931395 -0.037332 0)
(0.928604 -0.0356296 0)
(0.925978 -0.0339918 0)
(0.923831 -0.0324303 0)
(0.922459 -0.0309426 0)
(0.922049 -0.0295092 0)
(0.940353 -0.067913 0)
(0.938753 -0.0666797 0)
(0.937241 -0.0653848 0)
(0.935812 -0.0640377 0)
(0.934471 -0.0626412 0)
(0.933233 -0.0611993 0)
(0.932127 -0.0597178 0)
(0.931191 -0.0582025 0)
(0.930481 -0.0566593 0)
(0.930067 -0.0550931 0)
(0.930023 -0.053506 0)
(0.930415 -0.0518941 0)
(0.931273 -0.0502453 0)
(0.932551 -0.0485369 0)
(0.934098 -0.0467361 0)
(0.935645 -0.0448059 0)
(0.936835 -0.0427158 0)
(0.937299 -0.0404553 0)
(0.93677 -0.0380447 0)
(0.930068 -0.082684 0)
(0.928233 -0.0805698 0)
(0.926424 -0.078402 0)
(0.924655 -0.0761832 0)
(0.922938 -0.0739163 0)
(0.921272 -0.0716024 0)
(0.919649 -0.069241 0)
(0.918046 -0.0668314 0)
(0.916418 -0.064372 0)
(0.914697 -0.0618614 0)
(0.91279 -0.0592997 0)
(0.910586 -0.0566922 0)
(0.907988 -0.0540528 0)
(0.904949 -0.0514092 0)
(0.901534 -0.0488039 0)
(0.897968 -0.0462898 0)
(0.89464 -0.043918 0)
(0.892047 -0.041717 0)
(0.890634 -0.0396734 0)
(0.917252 -0.0958731 0)
(0.914835 -0.0940706 0)
(0.912532 -0.0921715 0)
(0.910338 -0.0901885 0)
(0.908258 -0.0881299 0)
(0.906302 -0.0860046 0)
(0.904487 -0.0838225 0)
(0.902839 -0.0815939 0)
(0.901398 -0.0793294 0)
(0.900225 -0.0770393 0)
(0.899404 -0.0747321 0)
(0.899041 -0.0724118 0)
(0.899245 -0.0700716 0)
(0.900086 -0.0676871 0)
(0.901535 -0.0652096 0)
(0.903388 -0.0625653 0)
(0.905228 -0.0596673 0)
(0.906463 -0.0564446 0)
(0.906487 -0.0528819 0)
(0.905041 -0.113953 0)
(0.902229 -0.111167 0)
(0.899501 -0.108278 0)
(0.896879 -0.105297 0)
(0.894377 -0.102223 0)
(0.892002 -0.0990531 0)
(0.889752 -0.0957848 0)
(0.887613 -0.0924146 0)
(0.885552 -0.0889385 0)
(0.88351 -0.085351 0)
(0.881386 -0.0816466 0)
(0.879036 -0.0778216 0)
(0.876274 -0.0738804 0)
(0.872904 -0.0698453 0)
(0.868792 -0.0657694 0)
(0.863982 -0.0617455 0)
(0.858819 -0.0579008 0)
(0.854008 -0.0543663 0)
(0.85049 -0.0512208 0)
(0.89089 -0.131169 0)
(0.887251 -0.1284 0)
(0.883779 -0.125453 0)
(0.880472 -0.12235 0)
(0.877329 -0.119109 0)
(0.874357 -0.115755 0)
(0.871566 -0.112308 0)
(0.868967 -0.108793 0)
(0.866579 -0.105231 0)
(0.864439 -0.101649 0)
(0.862608 -0.0980734 0)
(0.861195 -0.0945314 0)
(0.860364 -0.091048 0)
(0.860327 -0.0876353 0)
(0.861289 -0.084275 0)
(0.863323 -0.0808956 0)
(0.866197 -0.0773559 0)
(0.86922 -0.0734616 0)
(0.871274 -0.0690359 0)
(0.875682 -0.152754 0)
(0.871333 -0.148835 0)
(0.867166 -0.144722 0)
(0.863199 -0.140433 0)
(0.859466 -0.135975 0)
(0.85598 -0.131349 0)
(0.85275 -0.12656 0)
(0.849775 -0.121615 0)
(0.847041 -0.116518 0)
(0.844517 -0.111275 0)
(0.842139 -0.105886 0)
(0.839793 -0.100351 0)
(0.83729 -0.094663 0)
(0.834345 -0.0888203 0)
(0.830597 -0.0828425 0)
(0.825699 -0.0768021 0)
(0.819551 -0.0708621 0)
(0.812622 -0.0652823 0)
(0.80621 -0.0603624 0)
(0.858954 -0.174195 0)
(0.853366 -0.16983 0)
(0.84805 -0.165087 0)
(0.843056 -0.160043 0)
(0.838379 -0.154725 0)
(0.834037 -0.149192 0)
(0.830046 -0.14349 0)
(0.826412 -0.13767 0)
(0.823145 -0.131788 0)
(0.820254 -0.1259 0)
(0.817761 -0.120064 0)
(0.815715 -0.114345 0)
(0.814229 -0.108813 0)
(0.813515 -0.103541 0)
(0.813918 -0.0985928 0)
(0.815873 -0.0939962 0)
(0.819704 -0.0896748 0)
(0.8252 -0.0853887 0)
(0.831135 -0.0807131 0)
(0.83976 -0.200618 0)
(0.83278 -0.194676 0)
(0.826214 -0.188376 0)
(0.820043 -0.181679 0)
(0.814347 -0.17465 0)
(0.809171 -0.167309 0)
(0.804536 -0.159696 0)
(0.80047 -0.151858 0)
(0.796974 -0.143837 0)
(0.794041 -0.135677 0)
(0.791635 -0.127416 0)
(0.789692 -0.119084 0)
(0.788087 -0.110701 0)
(0.786594 -0.102271 0)
(0.784819 -0.0937898 0)
(0.782149 -0.0852593 0)
(0.777821 -0.0767689 0)
(0.771313 -0.0685651 0)
(0.763159 -0.0611531 0)
(0.818883 -0.228317 0)
(0.809905 -0.221452 0)
(0.801402 -0.213709 0)
(0.793542 -0.205348 0)
(0.786376 -0.196406 0)
(0.779933 -0.186992 0)
(0.774283 -0.177216 0)
(0.769438 -0.167182 0)
(0.765425 -0.157015 0)
(0.762239 -0.146839 0)
(0.759877 -0.136791 0)
(0.758331 -0.127014 0)
(0.757623 -0.117661 0)
(0.757833 -0.108895 0)
(0.759188 -0.100885 0)
(0.762153 -0.0938083 0)
(0.767486 -0.0877647 0)
(0.775924 -0.0827351 0)
(0.787405 -0.0782767 0)
(0.794917 -0.26264 0)
(0.783264 -0.253411 0)
(0.772379 -0.243401 0)
(0.762348 -0.232491 0)
(0.753243 -0.220784 0)
(0.745251 -0.20842 0)
(0.738404 -0.195493 0)
(0.732798 -0.182167 0)
(0.728455 -0.168583 0)
(0.725401 -0.154893 0)
(0.723616 -0.141237 0)
(0.723055 -0.127743 0)
(0.72362 -0.114512 0)
(0.725138 -0.101615 0)
(0.727296 -0.0890919 0)
(0.729519 -0.0769106 0)
(0.730754 -0.0651244 0)
(0.729566 -0.0537976 0)
(0.724168 -0.0433387 0)
(0.769255 -0.300333 0)
(0.753921 -0.289666 0)
(0.739672 -0.277259 0)
(0.726506 -0.263365 0)
(0.71483 -0.248295 0)
(0.704642 -0.232135 0)
(0.696161 -0.215185 0)
(0.689426 -0.197645 0)
(0.684525 -0.179777 0)
(0.681455 -0.161838 0)
(0.680212 -0.144105 0)
(0.680745 -0.126867 0)
(0.682989 -0.110436 0)
(0.686893 -0.095153 0)
(0.692481 -0.0813723 0)
(0.699967 -0.069558 0)
(0.710109 -0.0599658 0)
(0.723821 -0.0530401 0)
(0.743344 -0.0489059 0)
(0.740074 -0.346993 0)
(0.720361 -0.333332 0)
(0.701483 -0.31734 0)
(0.68452 -0.299641 0)
(0.669315 -0.280015 0)
(0.656366 -0.259003 0)
(0.645731 -0.236805 0)
(0.637621 -0.21379 0)
(0.632062 -0.190293 0)
(0.629136 -0.16666 0)
(0.628823 -0.14323 0)
(0.631096 -0.12034 0)
(0.635869 -0.0982982 0)
(0.642999 -0.0773601 0)
(0.652202 -0.0577642 0)
(0.663028 -0.0394067 0)
(0.674073 -0.0225542 0)
(0.68436 -0.00699928 0)
(0.689146 0.00740325 0)
(0.710879 -0.400209 0)
(0.683657 -0.383574 0)
(0.659219 -0.364332 0)
(0.636695 -0.341566 0)
(0.61713 -0.316512 0)
(0.600541 -0.289346 0)
(0.587308 -0.260613 0)
(0.577425 -0.230809 0)
(0.571087 -0.200366 0)
(0.568242 -0.169742 0)
(0.568937 -0.139385 0)
(0.573121 -0.109757 0)
(0.58073 -0.0813574 0)
(0.59165 -0.0547905 0)
(0.605786 -0.0306051 0)
(0.622839 -0.0100346 0)
(0.644165 0.00662462 0)
(0.668822 0.0178048 0)
(0.702109 0.0217606 0)
(0.67623 -0.464017 0)
(0.642366 -0.444715 0)
(0.609897 -0.419348 0)
(0.581122 -0.390526 0)
(0.556163 -0.358303 0)
(0.535588 -0.323417 0)
(0.519287 -0.28677 0)
(0.507615 -0.248817 0)
(0.500317 -0.210177 0)
(0.497556 -0.171327 0)