/*--------------------------------*- C++ -*----------------------------------*\
  =========                 |
  \\      /  F ield         | OpenFOAM: The Open Source CFD Toolbox
   \\    /   O peration     | Website:  https://openfoam.org
    \\  /    A nd           | Version:  10
     \\/     M anipulation  |
\*---------------------------------------------------------------------------*/
FoamFile
{
    format      ascii;
    class       volVectorField;
    location    "0";
    object      U;
}
// * * * * * * * * * * * * * * * * * * * * * * * * * * * * * * * * * * * * * //

dimensions      [0 1 -1 0 0 0 0];

internalField   nonuniform List<vector> 
18483
(
(1 -0.00021718 0)
(1 -0.000771277 0)
(1 -0.00121533 0)
(1 -0.00167891 0)
(1 -0.00210051 0)
(1.00001 -0.00248739 0)
(1.00001 -0.00282247 0)
(1.00001 -0.00309612 0)
(1.00002 -0.00330075 0)
(1.00002 -0.00343259 0)
(1.00004 -0.00349297 0)
(1.00006 -0.00349527 0)
(1.00009 -0.00346258 0)
(1.00012 -0.00344895 0)
(1.00015 -0.00351333 0)
(1.00016 -0.003672 0)
(1.00011 -0.00387817 0)
(0.999719 -0.00404467 0)
(0.998334 -0.00409537 0)
(0.99526 -0.0040148 0)
(0.991118 -0.00387344 0)
(0.988293 -0.0037821 0)
(0.988479 -0.00371695 0)
(0.990793 -0.00357356 0)
(0.993446 -0.00335823 0)
(0.995516 -0.00312292 0)
(0.996892 -0.00290127 0)
(0.997744 -0.00270811 0)
(0.998253 -0.00254621 0)
(1.00066 -0.000633971 0)
(1.00067 -0.00223776 0)
(1.00072 -0.00352488 0)
(1.00075 -0.0048757 0)
(1.00078 -0.00610228 0)
(1.00077 -0.00723028 0)
(1.00072 -0.00820456 0)
(1.00064 -0.00899452 0)
(1.00051 -0.00957514 0)
(1.00034 -0.00994134 0)
(1.00013 -0.0101098 0)
(0.999916 -0.0101196 0)
(0.999724 -0.0100053 0)
(0.999589 -0.00969294 0)
(0.999517 -0.00907528 0)
(0.99945 -0.00811868 0)
(0.999341 -0.00689427 0)
(0.999376 -0.00560009 0)
(1.0003 -0.00446214 0)
(1.00319 -0.00365283 0)
(1.00771 -0.00322476 0)
(1.01101 -0.00296856 0)
(1.01055 -0.00274606 0)
(1.00732 -0.00265087 0)
(1.0038 -0.00265974 0)
(1.00123 -0.00268688 0)
(0.999642 -0.00269233 0)
(0.998726 -0.00266668 0)
(0.998213 -0.00261526 0)
(1.00191 -0.00100712 0)
(1.00196 -0.00353802 0)
(1.00209 -0.00558501 0)
(1.00219 -0.00775893 0)
(1.00226 -0.00975105 0)
(1.00225 -0.0116139 0)
(1.00212 -0.0132541 0)
(1.00187 -0.0146251 0)
(1.0015 -0.015685 0)
(1.00101 -0.016418 0)
(1.00045 -0.0168212 0)
(0.999877 -0.016891 0)
(0.999347 -0.0166479 0)
(0.99886 -0.0161602 0)
(0.998322 -0.0156157 0)
(0.997651 -0.0152795 0)
(0.996845 -0.0152254 0)
(0.995833 -0.015258 0)
(0.994136 -0.0151154 0)
(0.990992 -0.0145664 0)
(0.986664 -0.0134704 0)
(0.983553 -0.0120708 0)
(0.983937 -0.0107532 0)
(0.986889 -0.00955504 0)
(0.989969 -0.00844594 0)
(0.992078 -0.00748417 0)
(0.993298 -0.00668074 0)
(0.993951 -0.00601671 0)
(0.99428 -0.00546875 0)
(1.00342 -0.00133984 0)
(1.00354 -0.0046915 0)
(1.00378 -0.00742931 0)
(1.00399 -0.0103762 0)
(1.00414 -0.0131156 0)
(1.00415 -0.0157318 0)
(1.00397 -0.0180932 0)
(1.00357 -0.0201316 0)
(1.00295 -0.0217659 0)
(1.00214 -0.0229429 0)
(1.0012 -0.0236337 0)
(1.00017 -0.023847 0)
(0.999086 -0.0236732 0)
(0.997961 -0.0232617 0)
(0.996836 -0.0226734 0)
(0.995793 -0.0217204 0)
(0.994873 -0.0201753 0)
(0.994112 -0.0181896 0)
(0.993899 -0.0161408 0)
(0.995197 -0.0143306 0)
(0.998342 -0.0129939 0)
(1.00113 -0.0120696 0)
(1.0007 -0.011257 0)
(0.997456 -0.0105319 0)
(0.994005 -0.00995176 0)
(0.991621 -0.00943469 0)
(0.990183 -0.00893325 0)
(0.989316 -0.00844343 0)
(0.988761 -0.00797186 0)
(1.00502 -0.00163522 0)
(1.00523 -0.00571388 0)
(1.00559 -0.00907978 0)
(1.00595 -0.0127495 0)
(1.00623 -0.0162152 0)
(1.00631 -0.0195954 0)
(1.00612 -0.0227219 0)
(1.00559 -0.0255036 0)
(1.00473 -0.0278215 0)
(1.00352 -0.0296002 0)
(1.00203 -0.030811 0)
(1.00032 -0.0314776 0)
(0.998472 -0.0316552 0)
(0.996631 -0.0313807 0)
(0.994899 -0.0306841 0)
(0.993265 -0.0297748 0)
(0.991568 -0.0290553 0)
(0.989564 -0.0286689 0)
(0.986833 -0.0283096 0)
(0.98277 -0.0275735 0)
(0.977548 -0.0262368 0)
(0.973351 -0.0243953 0)
(0.972863 -0.0224837 0)
(0.975566 -0.0207026 0)
(0.978574 -0.0189845 0)
(0.980462 -0.0174196 0)
(0.981406 -0.0160687 0)
(0.981813 -0.0149235 0)
(0.981944 -0.013964 0)
(1.00669 -0.00189081 0)
(1.00699 -0.00659777 0)
(1.00751 -0.0105215 0)
(1.00805 -0.0148507 0)
(1.00852 -0.0190053 0)
(1.00873 -0.0231424 0)
(1.0086 -0.0270665 0)
(1.008 -0.0306743 0)
(1.00691 -0.0338179 0)
(1.00533 -0.0363925 0)
(1.00332 -0.0383225 0)
(1.00103 -0.0395639 0)
(0.998617 -0.0400942 0)
(0.996208 -0.0399401 0)
(0.99386 -0.0392236 0)
(0.991576 -0.038056 0)
(0.989372 -0.0363615 0)
(0.987249 -0.0340066 0)
(0.985425 -0.031222 0)
(0.984835 -0.0285826 0)
(0.986321 -0.0265363 0)
(0.988309 -0.0252023 0)
(0.987565 -0.024181 0)
(0.983763 -0.0231456 0)
(0.979698 -0.0222228 0)
(0.976997 -0.0213784 0)
(0.975414 -0.020539 0)
(0.974452 -0.0197181 0)
(0.973822 -0.0189314 0)
(1.0084 -0.00210241 0)
(1.00882 -0.0073285 0)
(1.00953 -0.011728 0)
(1.0103 -0.0166369 0)
(1.01101 -0.0214228 0)
(1.01144 -0.0262871 0)
(1.01144 -0.0310166 0)
(1.01088 -0.0355001 0)
(1.00968 -0.0395513 0)
(1.00785 -0.0430113 0)
(1.00546 -0.0457369 0)
(1.00264 -0.0476352 0)
(0.999525 -0.0486919 0)
(0.996223 -0.048958 0)
(0.992847 -0.048525 0)
(0.989506 -0.0475359 0)
(0.986203 -0.0463053 0)
(0.982779 -0.0452654 0)
(0.978969 -0.0445858 0)
(0.974327 -0.0439585 0)
(0.96855 -0.0428645 0)
(0.963002 -0.0409823 0)
(0.960612 -0.0386365 0)
(0.961918 -0.0363452 0)
(0.964074 -0.0340946 0)
(0.965192 -0.0319318 0)
(0.965474 -0.0300103 0)
(0.965388 -0.0283441 0)
(0.965162 -0.0269206 0)
(1.01012 -0.00226937 0)
(1.01067 -0.00790349 0)
(1.01159 -0.0126912 0)
(1.01263 -0.01809 0)
(1.01363 -0.0234335 0)
(1.01435 -0.0289706 0)
(1.01459 -0.0344786 0)
(1.01417 -0.0398418 0)
(1.01297 -0.0448417 0)
(1.01095 -0.0492824 0)
(1.00814 -0.0529871 0)
(1.00462 -0.0558353 0)
(1.00056 -0.0577718 0)
(0.996171 -0.0587754 0)
(0.991669 -0.0588516 0)
(0.987232 -0.0580602 0)
(0.983032 -0.0564697 0)
(0.979272 -0.0540502 0)
(0.976208 -0.0508735 0)
(0.974352 -0.0474492 0)
(0.974272 -0.0444852 0)
(0.975034 -0.0424431 0)
(0.973609 -0.041054 0)
(0.968826 -0.0396569 0)
(0.963424 -0.0382746 0)
(0.95971 -0.0370267 0)
(0.957464 -0.0357874 0)
(0.956008 -0.0345657 0)
(0.954997 -0.0333933 0)
(1.01181 -0.00239571 0)
(1.0125 -0.00833612 0)
(1.01363 -0.013428 0)
(1.01496 -0.019226 0)
(1.0163 -0.0250449 0)
(1.01737 -0.0311828 0)
(1.01793 -0.0374182 0)
(1.01774 -0.0436443 0)
(1.01663 -0.0496312 0)
(1.0145 -0.0551636 0)
(1.01134 -0.0600235 0)
(1.00726 -0.0640156 0)
(1.00247 -0.0669806 0)
(0.997223 -0.0688204 0)
(0.99172 -0.0695261 0)
(0.98613 -0.0691581 0)
(0.980654 -0.0679506 0)
(0.975481 -0.0664943 0)
(0.970583 -0.0653741 0)
(0.965441 -0.0645501 0)
(0.959189 -0.0633984 0)
(0.952225 -0.0612685 0)
(0.947278 -0.0582382 0)
(0.94624 -0.0551367 0)
(0.946993 -0.0522215 0)
(0.947005 -0.0493576 0)
(0.94628 -0.0467504 0)
(0.945397 -0.0444621 0)
(0.94455 -0.0424721 0)
(1.01341 -0.00248816 0)
(1.01424 -0.00864901 0)
(1.01559 -0.0139705 0)
(1.01723 -0.0200834 0)
(1.01894 -0.0262943 0)
(1.02041 -0.0329521 0)
(1.02136 -0.039848 0)
(1.0215 -0.0468959 0)
(1.02061 -0.0538629 0)
(1.01855 -0.0605104 0)
(1.0153 -0.0665649 0)
(1.01093 -0.0717636 0)
(1.0056 -0.0758978 0)
(0.999486 -0.0788468 0)
(0.992799 -0.080596 0)
(0.985805 -0.0811864 0)
(0.978876 -0.080671 0)
(0.972566 -0.0790473 0)
(0.967383 -0.0761886 0)
(0.963523 -0.0722708 0)
(0.961146 -0.0681034 0)
(0.959958 -0.0646818 0)
(0.957678 -0.0623572 0)
(0.952159 -0.0603252 0)
(0.945249 -0.0581799 0)
(0.940028 -0.0562381 0)
(0.936696 -0.0543938 0)
(0.934365 -0.0525812 0)
(0.932632 -0.050861 0)
(1.01491 -0.00255392 0)
(1.01587 -0.00886676 0)
(1.01745 -0.0143554 0)
(1.0194 -0.0207084 0)
(1.02149 -0.0272314 0)
(1.0234 -0.0343248 0)
(1.0248 -0.0417994 0)
(1.02537 -0.0495951 0)
(1.02485 -0.0574814 0)
(1.02305 -0.0652077 0)
(1.01985 -0.0724757 0)
(1.01526 -0.0789993 0)
(1.00937 -0.0845385 0)
(1.00236 -0.0889033 0)
(0.994528 -0.0919654 0)
(0.986252 -0.0936537 0)
(0.977975 -0.0939552 0)
(0.970155 -0.0931325 0)
(0.96294 -0.0918637 0)
(0.955883 -0.090712 0)
(0.948163 -0.0894103 0)
(0.939538 -0.0870825 0)
(0.931847 -0.0833286 0)
(0.927818 -0.0791042 0)
(0.926782 -0.0752579 0)
(0.925672 -0.071541 0)
(0.92379 -0.0680552 0)
(0.921892 -0.0649876 0)
(0.920211 -0.0622903 0)
(1.01628 -0.00259948 0)
(1.01737 -0.00901189 0)
(1.01917 -0.0146173 0)
(1.02143 -0.0211466 0)
(1.02392 -0.0279088 0)
(1.02628 -0.0353543 0)
(1.02818 -0.0433179 0)
(1.02926 -0.0517708 0)
(1.02921 -0.0605001 0)
(1.02775 -0.0692685 0)
(1.02471 -0.0777783 0)
(1.02001 -0.0857189 0)
(1.01376 -0.0927825 0)
(1.00616 -0.0986777 0)
(0.997489 -0.103186 0)
(0.988092 -0.106214 0)
(0.978383 -0.107762 0)
(0.968913 -0.107843 0)
(0.960315 -0.106291 0)
(0.953024 -0.102906 0)
(0.94725 -0.098141 0)
(0.94311 -0.0933556 0)
(0.93933 -0.0898094 0)
(0.933204 -0.0870379 0)
(0.924863 -0.0839882 0)
(0.917653 -0.08101 0)
(0.912829 -0.0782876 0)
(0.909344 -0.0756075 0)
(0.906633 -0.0730687 0)
(1.01754 -0.00263012 0)
(1.01875 -0.00910283 0)
(1.02075 -0.0147852 0)
(1.02332 -0.0214383 0)
(1.02619 -0.0283753 0)
(1.02902 -0.0360951 0)
(1.03145 -0.04446 0)
(1.03309 -0.0534785 0)
(1.03357 -0.06297 0)
(1.03256 -0.0727223 0)
(1.02985 -0.0824363 0)
(1.02533 -0.0917693 0)
(1.01905 -0.100359 0)
(1.01114 -0.10787 0)
(1.00179 -0.11404 0)
(0.991315 -0.118708 0)
(0.980182 -0.121737 0)
(0.969019 -0.123021 0)
(0.958309 -0.122808 0)
(0.947949 -0.121922 0)
(0.937386 -0.120874 0)
(0.926202 -0.118969 0)
(0.915263 -0.115102 0)
(0.907276 -0.109778 0)
(0.903455 -0.104657 0)
(0.90098 -0.0999079 0)
(0.897771 -0.0952579 0)
(0.894538 -0.0910926 0)
(0.891745 -0.0874102 0)
(1.01868 -0.00264985 0)
(1.02 -0.00915378 0)
(1.02221 -0.0148823 0)
(1.02505 -0.0216167 0)
(1.0283 -0.0286736 0)
(1.0316 -0.0365988 0)
(1.03456 -0.0452838 0)
(1.03678 -0.0547772 0)
(1.03787 -0.0649353 0)
(1.03746 -0.0755735 0)
(1.03526 -0.0863983 0)
(1.03113 -0.0970613 0)
(1.025 -0.107194 0)
(1.01691 -0.116438 0)
(1.007 -0.12446 0)
(0.99561 -0.130977 0)
(0.983202 -0.13576 0)
(0.970367 -0.138658 0)
(0.957737 -0.139541 0)
(0.945953 -0.13812 0)
(0.935597 -0.134268 0)
(0.927127 -0.128908 0)
(0.920262 -0.124017 0)
(0.912692 -0.120418 0)
(0.902683 -0.116661 0)
(0.892644 -0.112404 0)
(0.885384 -0.108439 0)
(0.880199 -0.104559 0)
(0.876071 -0.10079 0)
(1.01971 -0.00266165 0)
(1.02114 -0.00917542 0)
(1.02353 -0.0149266 0)
(1.02664 -0.0217085 0)
(1.03025 -0.0288401 0)
(1.03399 -0.0369116 0)
(1.03749 -0.0458427 0)
(1.04032 -0.0557208 0)
(1.04206 -0.0664415 0)
(1.04232 -0.0778554 0)
(1.04075 -0.0896956 0)
(1.0371 -0.101635 0)
(1.03124 -0.113307 0)
(1.02316 -0.124318 0)
(1.013 -0.134257 0)
(1.00102 -0.142751 0)
(0.987599 -0.149509 0)
(0.973313 -0.154277 0)
(0.958795 -0.156889 0)
(0.944363 -0.157731 0)
(0.92979 -0.157732 0)
(0.914795 -0.157012 0)
(0.899638 -0.154204 0)
(0.886351 -0.148495 0)
(0.877775 -0.141779 0)
(0.872798 -0.135635 0)
(0.86781 -0.129492 0)
(0.862565 -0.123661 0)
(0.858064 -0.118485 0)
(1.02064 -0.00266775 0)
(1.02216 -0.00917588 0)
(1.02472 -0.014932 0)
(1.02808 -0.0217353 0)
(1.03203 -0.0289053 0)
(1.0362 -0.0370735 0)
(1.04021 -0.046185 0)
(1.04365 -0.0563645 0)
(1.04607 -0.0675507 0)
(1.04703 -0.0796384 0)
(1.04614 -0.0924004 0)
(1.04308 -0.105534 0)
(1.03769 -0.118668 0)
(1.02993 -0.131382 0)
(1.01983 -0.143238 0)
(1.00754 -0.153822 0)
(0.993367 -0.162784 0)
(0.977822 -0.16981 0)
(0.961518 -0.174594 0)
(0.945062 -0.176794 0)
(0.929269 -0.175875 0)
(0.915048 -0.17176 0)
(0.902966 -0.166182 0)
(0.892074 -0.161636 0)
(0.879621 -0.157584 0)
(0.865662 -0.152231 0)
(0.854113 -0.146569 0)
(0.845969 -0.141117 0)
(0.839545 -0.135592 0)
(1.02149 -0.00266979 0)
(1.02309 -0.00916126 0)
(1.02581 -0.0149095 0)
(1.02939 -0.0217144 0)
(1.03365 -0.0288942 0)
(1.03822 -0.037119 0)
(1.04273 -0.046355 0)
(1.04676 -0.0567634 0)
(1.04985 -0.0683287 0)
(1.05153 -0.0809921 0)
(1.05137 -0.0945656 0)
(1.04905 -0.108771 0)
(1.04434 -0.123244 0)
(1.0371 -0.137575 0)
(1.02729 -0.151333 0)
(1.01493 -0.164076 0)
(1.0003 -0.175399 0)
(0.983842 -0.184921 0)
(0.96612 -0.192207 0)
(0.947584 -0.196995 0)
(0.928397 -0.199819 0)
(0.908451 -0.201545 0)
(0.887862 -0.201424 0)
(0.867815 -0.197236 0)
(0.851727 -0.189498 0)
(0.841551 -0.181514 0)
(0.833636 -0.173712 0)
(0.825251 -0.165593 0)
(0.81779 -0.158134 0)
(1.02225 -0.00266894 0)
(1.02393 -0.00913608 0)
(1.02679 -0.0148671 0)
(1.03058 -0.0216589 0)
(1.03513 -0.0288272 0)
(1.04007 -0.0370768 0)
(1.04504 -0.0463914 0)
(1.04963 -0.0569671 0)
(1.05338 -0.0688332 0)
(1.0558 -0.0819739 0)
(1.05645 -0.0962399 0)
(1.05495 -0.111387 0)
(1.051 -0.127079 0)
(1.04441 -0.142931 0)
(1.03505 -0.158522 0)
(1.02293 -0.173396 0)
(1.00821 -0.18712 0)
(0.991277 -0.199293 0)
(0.972525 -0.20946 0)
(0.952324 -0.2171 0)
(0.931273 -0.221511 0)
(0.910544 -0.221699 0)
(0.891359 -0.217823 0)
(0.874368 -0.212874 0)
(0.857726 -0.209076 0)
(0.838723 -0.203903 0)
(0.82016 -0.196553 0)
(0.806343 -0.189108 0)
(0.795904 -0.181356 0)
(1.02295 -0.00266601 0)
(1.0247 -0.00910365 0)
(1.02768 -0.0148114 0)
(1.03166 -0.021579 0)
(1.03647 -0.0287202 0)
(1.04175 -0.0369705 0)
(1.04716 -0.0463261 0)
(1.05229 -0.057017 0)
(1.05668 -0.0691131 0)
(1.05984 -0.0826391 0)
(1.06129 -0.0974883 0)
(1.06063 -0.113458 0)
(1.0575 -0.130249 0)
(1.05165 -0.147493 0)
(1.04295 -0.164781 0)
(1.03135 -0.181674 0)
(1.01692 -0.197757 0)
(0.999912 -0.212643 0)
(0.980608 -0.225867 0)
(0.95923 -0.236828 0)
(0.935945 -0.245178 0)
(0.910839 -0.251538 0)
(0.884054 -0.256377 0)
(0.856256 -0.257364 0)
(0.829918 -0.251638 0)
(0.809876 -0.242146 0)
(0.796096 -0.232747 0)
(0.78292 -0.222353 0)
(0.770135 -0.211698 0)
(1.02359 -0.00266161 0)
(1.02539 -0.00906655 0)
(1.02849 -0.014747 0)
(1.03263 -0.0214829 0)
(1.03769 -0.0285861 0)
(1.04328 -0.0368191 0)
(1.04909 -0.0461858 0)
(1.05473 -0.0569486 0)
(1.05973 -0.0692141 0)
(1.0636 -0.0830468 0)
(1.06584 -0.0983841 0)
(1.06601 -0.115066 0)
(1.06374 -0.132821 0)
(1.05875 -0.151302 0)
(1.05087 -0.170122 0)
(1.04 -0.188883 0)
(1.02615 -0.207214 0)
(1.00946 -0.224764 0)
(0.990118 -0.24112 0)
(0.968157 -0.25571 0)
(0.943633 -0.267719 0)
(0.91724 -0.275764 0)
(0.890464 -0.278137 0)
(0.864862 -0.275714 0)
(0.841109 -0.273204 0)
(0.815953 -0.270848 0)
(0.787772 -0.263992 0)
(0.763287 -0.254512 0)
(0.745333 -0.244506 0)
(1.02416 -0.0026562 0)
(1.02602 -0.00902674 0)
(1.02922 -0.0146778 0)
(1.03351 -0.021377 0)
(1.03879 -0.0284348 0)
(1.04466 -0.0366373 0)
(1.05084 -0.0459922 0)
(1.05695 -0.0567926 0)
(1.06252 -0.0691776 0)
(1.06706 -0.0832501 0)
(1.07007 -0.0989897 0)
(1.07108 -0.116274 0)
(1.06971 -0.134859 0)
(1.06564 -0.154421 0)
(1.05867 -0.174606 0)
(1.04866 -0.195056 0)
(1.03561 -0.21545 0)
(1.01962 -0.235501 0)
(1.00075 -0.254884 0)
(0.978869 -0.273096 0)
(0.953688 -0.289383 0)
(0.925011 -0.303349 0)
(0.892861 -0.315883 0)
(0.857589 -0.326538 0)
(0.820099 -0.329746 0)
(0.784988 -0.322657 0)
(0.758819 -0.312221 0)
(0.738041 -0.301041 0)
(0.716645 -0.28706 0)
(1.02467 -0.00265016 0)
(1.02658 -0.00898574 0)
(1.02988 -0.0146067 0)
(1.03429 -0.0212662 0)
(1.03977 -0.0282743 0)
(1.04589 -0.0364371 0)
(1.05242 -0.0457632 0)
(1.05896 -0.0565747 0)
(1.06507 -0.0690387 0)
(1.07025 -0.0832936 0)
(1.074 -0.0993574 0)
(1.07584 -0.117142 0)
(1.07536 -0.136435 0)
(1.07223 -0.156937 0)
(1.06619 -0.17832 0)
(1.05714 -0.200259 0)
(1.04507 -0.222483 0)
(1.03008 -0.244796 0)
(1.01212 -0.266998 0)
(0.990894 -0.288753 0)
(0.9659 -0.309444 0)
(0.936932 -0.327901 0)
(0.904824 -0.341816 0)
(0.871064 -0.348472 0)
(0.837335 -0.35008 0)
(0.803795 -0.353393 0)
(0.765264 -0.353721 0)
(0.723786 -0.344849 0)
(0.690753 -0.333044 0)
(1.02513 -0.00264378 0)
(1.02709 -0.00894474 0)
(1.03046 -0.0145357 0)
(1.03499 -0.0211543 0)
(1.04065 -0.0281107 0)
(1.047 -0.0362278 0)
(1.05384 -0.0455129 0)
(1.06077 -0.0563153 0)
(1.06737 -0.0688256 0)
(1.07316 -0.0832138 0)
(1.07761 -0.0995337 0)
(1.08025 -0.117732 0)
(1.08064 -0.137625 0)
(1.07842 -0.158936 0)
(1.07334 -0.181354 0)
(1.06529 -0.204576 0)
(1.05432 -0.228379 0)
(1.04053 -0.252671 0)
(1.02384 -0.277395 0)
(1.00381 -0.302358 0)
(0.979825 -0.327115 0)
(0.951187 -0.3509 0)
(0.917101 -0.373616 0)
(0.877333 -0.396906 0)
(0.831657 -0.418416 0)
(0.780104 -0.426271 0)
(0.731588 -0.418658 0)
(0.695155 -0.408609 0)
(0.661819 -0.394343 0)
(1.02554 -0.00263727 0)
(1.02753 -0.00890462 0)
(1.03098 -0.0144665 0)
(1.03562 -0.0210441 0)
(1.04143 -0.0279487 0)
(1.04798 -0.0360166 0)
(1.0551 -0.0452525 0)
(1.0624 -0.0560309 0)
(1.06946 -0.0685614 0)
(1.0758 -0.0830432 0)
(1.08091 -0.0995629 0)
(1.08431 -0.1181 0)
(1.08552 -0.138498 0)
(1.08419 -0.160498 0)
(1.08005 -0.183797 0)
(1.07304 -0.208109 0)
(1.06321 -0.233249 0)
(1.05073 -0.259217 0)
(1.03555 -0.286106 0)
(1.01713 -0.313876 0)
(0.994721 -0.342368 0)
(0.967613 -0.371279 0)
(0.935185 -0.399276 0)
(0.897786 -0.422611 0)
(0.856095 -0.436976 0)
(0.811735 -0.447873 0)
(0.763221 -0.464071 0)
(0.702379 -0.468883 0)
(0.639958 -0.456846 0)
(1.02591 -0.0026308 0)
(1.02793 -0.00886604 0)
(1.03144 -0.0144002 0)
(1.03617 -0.0209377 0)
(1.04213 -0.0277916 0)
(1.04885 -0.035809 0)
(1.05623 -0.0449907 0)
(1.06385 -0.0557346 0)
(1.07132 -0.0682651 0)
(1.07818 -0.0828088 0)
(1.0839 -0.0994822 0)
(1.088 -0.118294 0)
(1.08999 -0.139113 0)
(1.08952 -0.161692 0)
(1.08631 -0.185735 0)
(1.0803 -0.210965 0)
(1.0716 -0.237221 0)
(1.06047 -0.264566 0)
(1.04693 -0.293237 0)
(1.03043 -0.32337 0)
(1.01009 -0.35497 0)
(0.985394 -0.3881 0)
(0.955127 -0.422509 0)
(0.916671 -0.458683 0)
(0.869248 -0.500591 0)
(0.811228 -0.543395 0)
(0.737607 -0.5613 0)
(0.664308 -0.554798 0)
(0.608075 -0.545815 0)
(1.02623 -0.00262451 0)
(1.02829 -0.0088295 0)
(1.03185 -0.0143375 0)
(1.03666 -0.0208366 0)
(1.04274 -0.0276419 0)
(1.04963 -0.0356089 0)
(1.05723 -0.0447344 0)
(1.06514 -0.0554369 0)
(1.07299 -0.0679526 0)
(1.08031 -0.0825337 0)
(1.08659 -0.0993228 0)
(1.09134 -0.118355 0)
(1.09407 -0.139521 0)
(1.0944 -0.162586 0)
(1.09207 -0.187255 0)
(1.08701 -0.213251 0)
(1.07942 -0.240425 0)
(1.06962 -0.268882 0)
(1.05774 -0.29896 0)
(1.04331 -0.330983 0)
(1.02541 -0.365121 0)
(1.00346 -0.401797 0)
(0.976906 -0.441842 0)
(0.943927 -0.484158 0)
(0.902587 -0.522241 0)
(0.852256 -0.549215 0)
(0.79509 -0.581735 0)
(0.720228 -0.629417 0)
(0.612714 -0.6383 0)
(1.02652 -0.00261849 0)
(1.0286 -0.00879532 0)
(1.03221 -0.0142789 0)
(1.03709 -0.0207418 0)
(1.04328 -0.0275013 0)
(1.05031 -0.0354191 0)
(1.05811 -0.0444884 0)
(1.06628 -0.0551455 0)
(1.07446 -0.067636 0)
(1.08221 -0.0822353 0)
(1.08901 -0.099109 0)
(1.09435 -0.118316 0)
(1.09777 -0.139767 0)
(1.09885 -0.163238 0)
(1.09733 -0.188433 0)
(1.09316 -0.215061 0)
(1.08661 -0.24298 0)
(1.0781 -0.272321 0)
(1.06782 -0.303473 0)
(1.05545 -0.336913 0)
(1.04023 -0.373051 0)
(1.02143 -0.412358 0)
(0.99911 -0.456043 0)
(0.971563 -0.505387 0)
(0.931367 -0.561512 0)
(0.877667 -0.634987 0)
(0.810963 -0.72542 0)
(0.698351 -0.773312 0)
(0.553485 -0.766708 0)
(1.02677 -0.00261279 0)
(1.02887 -0.00876371 0)
(1.03253 -0.0142247 0)
(1.03747 -0.0206539 0)
(1.04376 -0.0273708 0)
(1.05091 -0.0352417 0)
(1.05889 -0.0442562 0)
(1.06728 -0.0548662 0)
(1.07577 -0.0673248 0)
(1.0839 -0.081928 0)
(1.09116 -0.0988616 0)
(1.09705 -0.118207 0)
(1.10109 -0.139891 0)
(1.10286 -0.163701 0)
(1.10208 -0.189334 0)
(1.09874 -0.216485 0)
(1.09316 -0.245001 0)
(1.08585 -0.275036 0)
(1.07707 -0.306997 0)
(1.06662 -0.341424 0)
(1.0541 -0.378998 0)
(1.03879 -0.420313 0)
(1.0204 -0.466525 0)
(0.999405 -0.521216 0)
(0.972763 -0.585712 0)
(0.933429 -0.645905 0)
(0.875681 -0.689854 0)
(0.805699 -0.781216 0)
(0.662892 -0.914899 0)
(1.02699 -0.00260747 0)
(1.02912 -0.00873476 0)
(1.03281 -0.0141751 0)
(1.0378 -0.0205733 0)
(1.04417 -0.0272508 0)
(1.05143 -0.0350777 0)
(1.05957 -0.0440399 0)
(1.06817 -0.0546027 0)
(1.07693 -0.0670255 0)
(1.08539 -0.0816221 0)
(1.09307 -0.0985964 0)
(1.09946 -0.118049 0)
(1.10406 -0.139924 0)
(1.10645 -0.164015 0)
(1.10636 -0.190012 0)
(1.10377 -0.217594 0)
(1.09905 -0.246586 0)
(1.09285 -0.277153 0)
(1.08547 -0.309713 0)
(1.07676 -0.344793 0)
(1.0667 -0.383252 0)
(1.05497 -0.426003 0)
(1.04083 -0.473801 0)
(1.02613 -0.53007 0)
(1.01045 -0.599509 0)
(0.976639 -0.679171 0)
(0.924234 -0.797549 0)
(0.867338 -1.00806 0)
(0.632396 -1.097 0)
(0.998549 -0.00241117 0)
(0.998722 -0.00228765 0)
(0.9988 -0.00216444 0)
(0.998784 -0.00204141 0)
(0.998665 -0.00191827 0)
(0.998427 -0.00179432 0)
(0.998045 -0.00166878 0)
(0.997488 -0.00154103 0)
(0.996727 -0.00141063 0)
(0.995734 -0.00127758 0)
(0.994495 -0.00114244 0)
(0.993019 -0.00100639 0)
(0.991342 -0.000871195 0)
(0.989535 -0.000738897 0)
(0.987701 -0.000611406 0)
(0.985973 -0.000489934 0)
(0.984497 -0.000374468 0)
(0.98341 -0.000263419 0)
(0.982826 -0.000153601 0)
(0.997929 -0.00254945 0)
(0.997769 -0.00247656 0)
(0.997694 -0.0023979 0)
(0.997695 -0.00231507 0)
(0.997775 -0.0022277 0)
(0.997945 -0.00213547 0)
(0.998228 -0.00203784 0)
(0.998658 -0.00193391 0)
(0.999271 -0.00182229 0)
(1.0001 -0.00170098 0)
(1.00119 -0.00156723 0)
(1.00253 -0.0014176 0)
(1.00411 -0.00124811 0)
(1.00586 -0.00105481 0)
(1.00768 -0.000834569 0)
(1.00942 -0.000586118 0)
(1.01091 -0.000311121 0)
(1.01199 -1.48544e-05 0)
(1.0125 0.000293752 0)
(0.994428 -0.00500838 0)
(0.994473 -0.00458114 0)
(0.994431 -0.00414736 0)
(0.994303 -0.00370535 0)
(0.994078 -0.00325498 0)
(0.993736 -0.00279611 0)
(0.993251 -0.00232933 0)
(0.992589 -0.00185639 0)
(0.991715 -0.00138046 0)
(0.990593 -0.000906331 0)
(0.989202 -0.000440703 0)
(0.987537 7.852e-06 0)
(0.985629 0.000429227 0)
(0.983549 0.000812613 0)
(0.981416 0.00114785 0)
(0.979392 0.00142717 0)
(0.977668 0.0016471 0)
(0.976437 0.00180995 0)
(0.975858 0.00192457 0)
(0.988375 -0.00752935 0)
(0.98807 -0.00709996 0)
(0.987809 -0.00666425 0)
(0.987594 -0.0062261 0)
(0.987437 -0.00578722 0)
(0.987365 -0.00535025 0)
(0.98742 -0.00491854 0)
(0.987655 -0.00449568 0)
(0.988134 -0.00408497 0)
(0.988925 -0.00368877 0)
(0.990091 -0.00330759 0)
(0.991671 -0.00293922 0)
(0.993664 -0.0025781 0)
(0.996013 -0.00221519 0)
(0.998591 -0.0018387 0)
(1.0012 -0.00143562 0)
(1.0036 -0.000994115 0)
(1.00552 -0.000506113 0)
(1.00672 3.05817e-05 0)
(0.98194 -0.0131536 0)
(0.981867 -0.0124058 0)
(0.981743 -0.0116575 0)
(0.981578 -0.010909 0)
(0.981379 -0.0101615 0)
(0.98114 -0.00941526 0)
(0.980849 -0.00866957 0)
(0.980479 -0.00792332 0)
(0.97999 -0.00717477 0)
(0.97933 -0.0064219 0)
(0.97844 -0.00566305 0)
(0.977265 -0.00489777 0)
(0.975768 -0.00412777 0)
(0.973956 -0.0033576 0)
(0.97189 -0.00259474 0)
(0.969706 -0.00184864 0)
(0.967606 -0.0011289 0)
(0.965832 -0.000442739 0)
(0.964625 0.000207373 0)
(0.973376 -0.0181957 0)
(0.973021 -0.0174816 0)
(0.972716 -0.0167538 0)
(0.97246 -0.0160164 0)
(0.972262 -0.0152694 0)
(0.972139 -0.0145134 0)
(0.972118 -0.0137489 0)
(0.972236 -0.0129769 0)
(0.972543 -0.0121984 0)
(0.973097 -0.011414 0)
(0.973962 -0.0106241 0)
(0.975193 -0.00982753 0)
(0.976825 -0.00902047 0)
(0.978847 -0.00819601 0)
(0.981182 -0.00734363 0)
(0.983674 -0.00645013 0)
(0.98609 -0.00550192 0)
(0.988145 -0.0044885 0)
(0.989554 -0.0034063 0)
(0.964897 -0.0257 0)
(0.964616 -0.0245604 0)
(0.964315 -0.0234086 0)
(0.964003 -0.0222455 0)
(0.96368 -0.0210732 0)
(0.963345 -0.0198917 0)
(0.962984 -0.0187 0)
(0.962577 -0.0174964 0)
(0.962087 -0.0162783 0)
(0.961461 -0.0150421 0)
(0.960633 -0.0137842 0)
(0.959526 -0.0125023 0)
(0.958069 -0.0111963 0)
(0.956217 -0.00987052 0)
(0.953983 -0.00853478 0)
(0.951463 -0.0072044 0)
(0.948852 -0.00589825 0)
(0.946434 -0.0046347 0)
(0.944534 -0.00342652 0)
(0.954249 -0.0322923 0)
(0.953631 -0.0312178 0)
(0.953078 -0.0301148 0)
(0.95258 -0.028989 0)
(0.952133 -0.0278404 0)
(0.951742 -0.0266696 0)
(0.951418 -0.0254774 0)
(0.95118 -0.0242648 0)
(0.951059 -0.0230332 0)
(0.9511 -0.0217845 0)
(0.951362 -0.0205207 0)
(0.951916 -0.0192433 0)
(0.952833 -0.0179518 0)
(0.954166 -0.0166419 0)
(0.955918 -0.0153039 0)
(0.958011 -0.0139217 0)
(0.960267 -0.0124745 0)
(0.962406 -0.0109414 0)
(0.964089 -0.00930823 0)
(0.943792 -0.0407406 0)
(0.94309 -0.039104 0)
(0.942402 -0.0374332 0)
(0.941734 -0.035731 0)
(0.941085 -0.0340014 0)
(0.94045 -0.0322467 0)
(0.939821 -0.0304685 0)
(0.939179 -0.028668 0)
(0.938498 -0.0268454 0)
(0.937736 -0.0250001 0)
(0.93683 -0.0231304 0)
(0.935701 -0.0212347 0)
(0.934254 -0.0193127 0)
(0.932401 -0.0173678 0)
(0.930084 -0.0154101 0)
(0.927324 -0.0134581 0)
(0.924262 -0.0115387 0)
(0.921182 -0.00968237 0)
(0.918486 -0.0079143 0)
(0.931291 -0.0492542 0)
(0.930147 -0.0476875 0)
(0.929095 -0.0460767 0)
(0.928125 -0.0444299 0)
(0.92723 -0.0427489 0)
(0.926408 -0.0410362 0)
(0.925662 -0.0392944 0)
(0.924997 -0.0375261 0)
(0.924428 -0.0357342 0)
(0.923982 -0.0339216 0)
(0.923702 -0.0320918 0)
(0.923652 -0.0302479 0)
(0.923918 -0.0283919 0)
(0.924594 -0.0265218 0)
(0.925759 -0.0246287 0)
(0.927435 -0.0226928 0)
(0.92953 -0.0206822 0)
(0.931799 -0.0185564 0)
(0.93385 -0.0162773 0)
(0.918763 -0.0599185 0)
(0.917451 -0.0576598 0)
(0.916195 -0.0553402 0)
(0.914999 -0.0529639 0)
(0.913865 -0.0505341 0)
(0.912789 -0.0480524 0)
(0.911763 -0.0455202 0)
(0.910774 -0.0429388 0)
(0.909801 -0.0403096 0)
(0.90881 -0.0376335 0)
(0.907751 -0.0349111 0)
(0.90655 -0.0321429 0)
(0.905105 -0.0293301 0)
(0.903291 -0.0264775 0)
(0.900977 -0.0235968 0)
(0.898074 -0.0207128 0)
(0.894605 -0.0178664 0)
(0.890779 -0.0151133 0)
(0.887048 -0.0125118 0)
(0.904478 -0.0707123 0)
(0.902602 -0.0684119 0)
(0.900849 -0.0660383 0)
(0.899207 -0.0636035 0)
(0.89767 -0.0611134 0)
(0.896235 -0.0585747 0)
(0.8949 -0.0559945 0)
(0.893667 -0.0533805 0)
(0.892544 -0.0507404 0)
(0.891544 -0.048082 0)
(0.890697 -0.0454138 0)
(0.890054 -0.0427441 0)
(0.889698 -0.040081 0)
(0.889748 -0.0374299 0)
(0.890348 -0.0347895 0)
(0.891634 -0.0321437 0)
(0.893656 -0.0294538 0)
(0.896278 -0.0266543 0)
(0.899089 -0.0236623 0)
(0.889351 -0.0841269 0)
(0.887189 -0.0809813 0)
(0.885126 -0.0777371 0)
(0.883172 -0.0744033 0)
(0.881336 -0.0709832 0)
(0.879617 -0.0674784 0)
(0.878015 -0.0638905 0)
(0.876522 -0.0602214 0)
(0.875126 -0.0564737 0)
(0.873804 -0.0526504 0)
(0.872522 -0.0487545 0)
(0.871223 -0.0447896 0)
(0.869818 -0.0407596 0)
(0.868172 -0.0366698 0)
(0.8661 -0.0325317 0)
(0.863391 -0.0283705 0)
(0.859871 -0.0242366 0)
(0.855545 -0.0202159 0)
(0.850767 -0.0164238 0)
(0.872754 -0.0972858 0)
(0.869856 -0.0938365 0)
(0.867138 -0.090247 0)
(0.864594 -0.086542 0)
(0.86222 -0.0827388 0)
(0.860016 -0.0788567 0)
(0.857982 -0.0749162 0)
(0.856122 -0.0709392 0)
(0.85444 -0.0669482 0)
(0.852946 -0.0629658 0)
(0.851658 -0.0590147 0)
(0.85061 -0.055117 0)
(0.849865 -0.051294 0)
(0.849532 -0.0475649 0)
(0.849781 -0.043943 0)
(0.850844 -0.0404273 0)
(0.852955 -0.0369863 0)
(0.856214 -0.0335374 0)
(0.860356 -0.0299344 0)
(0.854245 -0.113791 0)
(0.85081 -0.109251 0)
(0.847566 -0.104546 0)
(0.844536 -0.099697 0)
(0.84174 -0.0947163 0)
(0.839193 -0.0896141 0)
(0.836903 -0.0844008 0)
(0.834872 -0.0790872 0)
(0.833095 -0.0736837 0)
(0.83156 -0.0681999 0)
(0.830241 -0.0626443 0)
(0.829092 -0.0570241 0)
(0.82804 -0.0513451 0)
(0.82696 -0.0456124 0)
(0.825653 -0.0398331 0)
(0.823818 -0.0340235 0)
(0.821068 -0.0282291 0)
(0.817045 -0.0225511 0)
(0.811711 -0.01717 0)
(0.834343 -0.130345 0)
(0.829851 -0.125112 0)
(0.825685 -0.119579 0)
(0.821854 -0.113809 0)
(0.818368 -0.107838 0)
(0.815234 -0.101712 0)
(0.812462 -0.0954767 0)
(0.810055 -0.089182 0)
(0.808018 -0.0828803 0)
(0.806349 -0.076626 0)
(0.805051 -0.0704762 0)
(0.804134 -0.0644887 0)
(0.803627 -0.0587218 0)
(0.803596 -0.0532329 0)
(0.804182 -0.0480732 0)
(0.805635 -0.0432844 0)
(0.808341 -0.0388741 0)
(0.812726 -0.0347831 0)
(0.818977 -0.0308353 0)
(0.811599 -0.151277 0)
(0.806048 -0.144484 0)
(0.80088 -0.137363 0)
(0.796153 -0.129938 0)
(0.791909 -0.122251 0)
(0.788193 -0.114344 0)
(0.785029 -0.106257 0)
(0.782436 -0.0980396 0)
(0.780422 -0.0897375 0)
(0.778982 -0.0813955 0)
(0.778096 -0.0730523 0)
(0.777723 -0.0647397 0)
(0.777796 -0.0564806 0)
(0.778198 -0.0482872 0)
(0.778734 -0.0401678 0)
(0.779079 -0.0321218 0)
(0.778692 -0.0241781 0)
(0.776844 -0.0164307 0)
(0.77273 -0.00907821 0)
(0.787306 -0.173525 0)
(0.779945 -0.165553 0)
(0.773204 -0.156906 0)
(0.767113 -0.14772 0)
(0.76174 -0.138076 0)
(0.75712 -0.128064 0)
(0.753296 -0.117784 0)
(0.750289 -0.107341 0)
(0.748114 -0.0968482 0)
(0.746764 -0.0864237 0)
(0.746225 -0.0761954 0)
(0.74647 -0.0662983 0)
(0.747477 -0.0568752 0)
(0.749244 -0.0480791 0)
(0.751829 -0.0400569 0)
(0.755401 -0.0329704 0)
(0.760394 -0.0269276 0)
(0.767426 -0.0219553 0)
(0.777381 -0.0179949 0)
(0.759573 -0.20177 0)
(0.750146 -0.191539 0)
(0.741389 -0.180518 0)
(0.733517 -0.168772 0)
(0.726605 -0.156369 0)
(0.720779 -0.143432 0)
(0.716102 -0.130076 0)
(0.712643 -0.116446 0)
(0.710429 -0.102684 0)
(0.709477 -0.0889402 0)
(0.709775 -0.0753556 0)
(0.711284 -0.0620592 0)
(0.71393 -0.0491584 0)
(0.717592 -0.0367205 0)
(0.722061 -0.0248011 0)
(0.727025 -0.0133612 0)
(0.731764 -0.00240251 0)
(0.735396 0.00798743 0)
(0.736268 0.0177514 0)
(0.730575 -0.23331 0)
(0.717703 -0.221319 0)
(0.706028 -0.207914 0)
(0.695519 -0.193219 0)
(0.686423 -0.177478 0)
(0.678839 -0.16085 0)
(0.672912 -0.143558 0)
(0.668707 -0.12582 0)
(0.666291 -0.107873 0)
(0.665675 -0.0899606 0)
(0.666847 -0.0723405 0)
(0.669754 -0.0552838 0)
(0.674315 -0.0390752 0)
(0.680427 -0.0240489 0)
(0.68803 -0.0105052 0)
(0.697024 0.00108669 0)
(0.707957 0.0103823 0)
(0.721235 0.0171704 0)
(0.738273 0.0209504 0)
(0.697755 -0.273042 0)
(0.681195 -0.25817 0)
(0.665613 -0.241246 0)
(0.651712 -0.222709 0)
(0.639649 -0.202601 0)
(0.629719 -0.181235 0)
(0.622046 -0.158886 0)
(0.616803 -0.135869 0)
(0.614041 -0.112501 0)
(0.613821 -0.0891161 0)
(0.616141 -0.0660443 0)
(0.620973 -0.0436156 0)
(0.628238 -0.0221606 0)
(0.637821 -0.00191618 0)
(0.649423 0.016791 0)
(0.662975 0.0340535 0)
(0.677115 0.0498085 0)
(0.691215 0.0639496 0)
(0.703149 0.0771246 0)
(0.66522 -0.318725 0)
(0.64215 -0.301101 0)
(0.621308 -0.280771 0)
(0.602656 -0.257607 0)
(0.586688 -0.232212 0)
(0.573596 -0.205007 0)
(0.563693 -0.17642 0)
(0.557017 -0.146891 0)
(0.55372 -0.116853 0)
(0.553821 -0.0867169 0)
(0.557349 -0.0569136 0)
(0.564286 -0.0278918 0)
(0.574582 -0.000103658 0)
(0.588082 0.0258016 0)
(0.60484 0.0494339 0)
(0.623923 0.0695793 0)
(0.646775 0.0855881 0)
(0.672538 0.096673 0)
(0.702841 0.100277 0)
(0.628072 -0.374876 0)
(0.598459 -0.353847 0)
(0.570947 -0.328227 0)