/*--------------------------------*- C++ -*----------------------------------*\
  =========                 |
  \\      /  F ield         | OpenFOAM: The Open Source CFD Toolbox
   \\    /   O peration     | Website:  https://openfoam.org
    \\  /    A nd           | Version:  10
     \\/     M anipulation  |
\*---------------------------------------------------------------------------*/
FoamFile
{
    format      ascii;
    class       volVectorField;
    location    "0";
    object      U;
}
// * * * * * * * * * * * * * * * * * * * * * * * * * * * * * * * * * * * * * //

dimensions      [0 1 -1 0 0 0 0];

internalField   nonuniform List<vector> 
18483
(
(0.999996 -0.000211951 0)
(0.999996 -0.000753167 0)
(0.999995 -0.00118788 0)
(0.999994 -0.00164277 0)
(0.999993 -0.00205793 0)
(0.999992 -0.00244005 0)
(0.99999 -0.00277122 0)
(0.999989 -0.00304084 0)
(0.999985 -0.00324205 0)
(0.99998 -0.00337555 0)
(0.99997 -0.00345545 0)
(0.999955 -0.00351043 0)
(0.999936 -0.0035796 0)
(0.999916 -0.00372069 0)
(0.9999 -0.00398176 0)
(0.999878 -0.00437866 0)
(0.999774 -0.00485305 0)
(0.999254 -0.00528877 0)
(0.997418 -0.0055614 0)
(0.993164 -0.00553902 0)
(0.987132 -0.00526279 0)
(0.982743 -0.00491652 0)
(0.982784 -0.00457642 0)
(0.986233 -0.00421572 0)
(0.990404 -0.00384241 0)
(0.993751 -0.00349941 0)
(0.996006 -0.00320698 0)
(0.997403 -0.00296756 0)
(0.998227 -0.00277482 0)
(1.00066 -0.000626199 0)
(1.00067 -0.00221404 0)
(1.00072 -0.0034977 0)
(1.00075 -0.0048555 0)
(1.00078 -0.00610577 0)
(1.00078 -0.00727628 0)
(1.00074 -0.00831203 0)
(1.00066 -0.00918151 0)
(1.00054 -0.0098576 0)
(1.00039 -0.0103268 0)
(1.00024 -0.010582 0)
(1.00013 -0.010627 0)
(1.0001 -0.0104447 0)
(1.00018 -0.0099544 0)
(1.00035 -0.00906801 0)
(1.00056 -0.00775581 0)
(1.00074 -0.00613709 0)
(1.00103 -0.00446597 0)
(1.00209 -0.00306884 0)
(1.00511 -0.00235432 0)
(1.01011 -0.00242238 0)
(1.01408 -0.00289211 0)
(1.01366 -0.00336157 0)
(1.00958 -0.00370638 0)
(1.00494 -0.00392467 0)
(1.00147 -0.00401121 0)
(0.999319 -0.00399402 0)
(0.998102 -0.00390903 0)
(0.997442 -0.00378729 0)
(1.00188 -0.000983782 0)
(1.00194 -0.00346537 0)
(1.00208 -0.00549083 0)
(1.00221 -0.00766197 0)
(1.00231 -0.00968859 0)
(1.00233 -0.0116274 0)
(1.00226 -0.013386 0)
(1.00206 -0.0149103 0)
(1.00174 -0.0161384 0)
(1.00131 -0.0170285 0)
(1.00079 -0.0175507 0)
(1.00019 -0.0177039 0)
(0.999532 -0.0175375 0)
(0.998808 -0.017159 0)
(0.997967 -0.0167769 0)
(0.99699 -0.0165991 0)
(0.995917 -0.0166395 0)
(0.994782 -0.0167229 0)
(0.993415 -0.0166029 0)
(0.991259 -0.0160416 0)
(0.987954 -0.0149205 0)
(0.984832 -0.0135052 0)
(0.984237 -0.0122505 0)
(0.986244 -0.0112202 0)
(0.988829 -0.0103068 0)
(0.990728 -0.00951626 0)
(0.991862 -0.00884699 0)
(0.992493 -0.00828331 0)
(0.992844 -0.0078108 0)
(1.00334 -0.0012745 0)
(1.00347 -0.00447795 0)
(1.00373 -0.00711824 0)
(1.00398 -0.00998628 0)
(1.0042 -0.0127048 0)
(1.00429 -0.0153623 0)
(1.00421 -0.0178359 0)
(1.00391 -0.0200552 0)
(1.00337 -0.0219318 0)
(1.00259 -0.0234108 0)
(1.00159 -0.024469 0)
(1.00041 -0.0251078 0)
(0.999125 -0.0253746 0)
(0.997833 -0.0253183 0)
(0.99662 -0.0248999 0)
(0.995555 -0.0239623 0)
(0.99466 -0.0224415 0)
(0.994024 -0.0205371 0)
(0.994128 -0.0185778 0)
(0.995978 -0.0168413 0)
(0.999985 -0.0154975 0)
(1.00401 -0.0145995 0)
(1.00461 -0.0138662 0)
(1.00138 -0.0131732 0)
(0.99707 -0.012653 0)
(0.993674 -0.0122349 0)
(0.991453 -0.0118401 0)
(0.99007 -0.0114509 0)
(0.989201 -0.0110662 0)
(1.00485 -0.00150868 0)
(1.00507 -0.00528865 0)
(1.00546 -0.00842944 0)
(1.00588 -0.0118805 0)
(1.00626 -0.0151979 0)
(1.00648 -0.0185039 0)
(1.00647 -0.0216552 0)
(1.00613 -0.0245706 0)
(1.00544 -0.0271356 0)
(1.00439 -0.0292602 0)
(1.00304 -0.0308752 0)
(1.00147 -0.0319241 0)
(0.999787 -0.0323882 0)
(0.998057 -0.0323057 0)
(0.996307 -0.0318208 0)
(0.994505 -0.0312155 0)
(0.992618 -0.0307904 0)
(0.990661 -0.0306341 0)
(0.988441 -0.0304961 0)
(0.985334 -0.0300091 0)
(0.98088 -0.028996 0)
(0.97636 -0.0274232 0)
(0.974588 -0.0256532 0)
(0.976249 -0.0240435 0)
(0.97893 -0.0224829 0)
(0.980763 -0.0210034 0)
(0.98164 -0.0197055 0)
(0.981955 -0.0185976 0)
(0.982 -0.0176673 0)
(1.00637 -0.00169861 0)
(1.00669 -0.00594025 0)
(1.00724 -0.00948634 0)
(1.00785 -0.013419 0)
(1.00844 -0.0172438 0)
(1.00886 -0.0211201 0)
(1.00897 -0.0248928 0)
(1.00868 -0.0284742 0)
(1.00791 -0.0317211 0)
(1.00666 -0.0345046 0)
(1.00494 -0.036718 0)
(1.00283 -0.0383061 0)
(1.00037 -0.0392884 0)
(0.997679 -0.0397384 0)
(0.994881 -0.0397265 0)
(0.992157 -0.0391954 0)
(0.989669 -0.0379139 0)
(0.987501 -0.0357855 0)
(0.985926 -0.0331287 0)
(0.98584 -0.0304698 0)
(0.988164 -0.0282407 0)
(0.99161 -0.0266829 0)
(0.992436 -0.0255537 0)
(0.989067 -0.0244738 0)
(0.984161 -0.023564 0)
(0.980328 -0.0228434 0)
(0.977886 -0.0221673 0)
(0.976356 -0.0215037 0)
(0.975358 -0.0208551 0)
(1.00789 -0.00185238 0)
(1.00832 -0.00646246 0)
(1.00903 -0.0103352 0)
(1.00986 -0.0146623 0)
(1.0107 -0.0189129 0)
(1.01136 -0.0232877 0)
(1.01167 -0.0276293 0)
(1.0115 -0.0318548 0)
(1.01073 -0.0358067 0)
(1.0093 -0.0393422 0)
(1.00721 -0.0423379 0)
(1.00453 -0.0447132 0)
(1.00142 -0.0464112 0)
(0.998078 -0.0473508 0)
(0.994691 -0.0474807 0)
(0.991337 -0.0469113 0)
(0.987959 -0.0460714 0)
(0.98448 -0.0454849 0)
(0.980909 -0.0451827 0)
(0.976862 -0.0447112 0)
(0.971519 -0.0436333 0)
(0.96543 -0.0417322 0)
(0.961705 -0.039358 0)
(0.962308 -0.0370843 0)
(0.964838 -0.0348972 0)
(0.966493 -0.0327414 0)
(0.967001 -0.0307948 0)
(0.966928 -0.0291069 0)
(0.966625 -0.0276671 0)
(1.00939 -0.00197548 0)
(1.00993 -0.00687616 0)
(1.01082 -0.0110107 0)
(1.01189 -0.01566 0)
(1.013 -0.0202689 0)
(1.01394 -0.025083 0)
(1.01453 -0.0299525 0)
(1.01456 -0.0348114 0)
(1.01389 -0.0395006 0)
(1.01242 -0.0438633 0)
(1.01015 -0.0477283 0)
(1.00716 -0.0509276 0)
(1.00361 -0.053321 0)
(0.999652 -0.0548409 0)
(0.995367 -0.0555628 0)
(0.99083 -0.0556408 0)
(0.986248 -0.0550854 0)
(0.981942 -0.053551 0)
(0.978256 -0.0508526 0)
(0.975815 -0.0475059 0)
(0.975762 -0.0442867 0)
(0.977926 -0.0418249 0)
(0.978731 -0.0401156 0)
(0.975021 -0.0385689 0)
(0.968901 -0.0371577 0)
(0.963987 -0.0360293 0)
(0.960877 -0.0349849 0)
(0.958844 -0.0339549 0)
(0.957422 -0.0329536 0)
(1.01086 -0.0020728 0)
(1.0115 -0.00719938 0)
(1.01256 -0.0115427 0)
(1.01388 -0.016456 0)
(1.01529 -0.0213686 0)
(1.01656 -0.0265725 0)
(1.01747 -0.031933 0)
(1.0178 -0.0374086 0)
(1.01736 -0.0428448 0)
(1.01601 -0.048071 0)
(1.01369 -0.0528785 0)
(1.01043 -0.0570646 0)
(1.00631 -0.060485 0)
(1.00145 -0.0630745 0)
(0.996085 -0.0648055 0)
(0.99048 -0.0655667 0)
(0.984886 -0.0653926 0)
(0.979328 -0.0647645 0)
(0.973632 -0.0643139 0)
(0.967603 -0.0640355 0)
(0.960713 -0.0632614 0)
(0.95293 -0.0614157 0)
(0.946842 -0.0585801 0)
(0.94559 -0.0555772 0)
(0.947553 -0.0527085 0)
(0.948827 -0.0497902 0)
(0.948682 -0.0470768 0)
(0.947977 -0.0447022 0)
(0.947131 -0.0426477 0)
(1.01224 -0.00214912 0)
(1.01299 -0.0074494 0)
(1.01423 -0.011959 0)
(1.01579 -0.0170896 0)
(1.0175 -0.0222605 0)
(1.01912 -0.0278099 0)
(1.02042 -0.0336228 0)
(1.02113 -0.0396889 0)
(1.02102 -0.0458696 0)
(1.0199 -0.0520018 0)
(1.01764 -0.0578734 0)
(1.01419 -0.0632667 0)
(1.00964 -0.0679723 0)
(1.00419 -0.0717759 0)
(0.998127 -0.0745066 0)
(0.991672 -0.0760778 0)
(0.984937 -0.0765709 0)
(0.978134 -0.0760053 0)
(0.971725 -0.0740856 0)
(0.966477 -0.0707923 0)
(0.963543 -0.06693 0)
(0.963485 -0.0635953 0)
(0.96355 -0.0613002 0)
(0.959325 -0.059373 0)
(0.951555 -0.0573699 0)
(0.94489 -0.0556738 0)
(0.940689 -0.0541293 0)
(0.937827 -0.0525637 0)
(0.935695 -0.0510394 0)
(1.01354 -0.00220871 0)
(1.01438 -0.00764148 0)
(1.01579 -0.0122835 0)
(1.01759 -0.0175927 0)
(1.01961 -0.0229818 0)
(1.0216 -0.0288339 0)
(1.02332 -0.0350564 0)
(1.02447 -0.0416753 0)
(1.0248 -0.04858 0)
(1.02404 -0.0556312 0)
(1.02203 -0.0626188 0)
(1.01867 -0.0692871 0)
(1.01404 -0.0753455 0)
(1.00824 -0.0805009 0)
(1.00146 -0.0845766 0)
(0.993873 -0.0874948 0)
(0.985729 -0.0891859 0)
(0.97737 -0.0897462 0)
(0.969 -0.0897603 0)
(0.960553 -0.0898931 0)
(0.951566 -0.0898926 0)
(0.941507 -0.0887136 0)
(0.932137 -0.085786 0)
(0.927545 -0.0820361 0)
(0.927883 -0.0784337 0)
(0.928353 -0.0747376 0)
(0.927069 -0.0711171 0)
(0.92526 -0.0679279 0)
(0.923492 -0.0651314 0)
(1.01472 -0.00225506 0)
(1.01566 -0.00778761 0)
(1.01723 -0.0125343 0)
(1.01926 -0.017989 0)
(1.0216 -0.0235591 0)
(1.02397 -0.02967 0)
(1.02614 -0.0362523 0)
(1.0278 -0.0433697 0)
(1.02865 -0.0509461 0)
(1.02842 -0.0588729 0)
(1.02685 -0.0669504 0)
(1.02381 -0.0749109 0)
(1.01923 -0.0824503 0)
(1.01313 -0.0892579 0)
(1.00564 -0.0950667 0)
(0.997052 -0.0996292 0)
(0.987729 -0.102735 0)
(0.978036 -0.104275 0)
(0.968477 -0.104093 0)
(0.959856 -0.10194 0)
(0.953292 -0.0981237 0)
(0.949843 -0.0939666 0)
(0.948082 -0.0909301 0)
(0.943039 -0.0887638 0)
(0.933238 -0.086281 0)
(0.923805 -0.0838586 0)
(0.917747 -0.0817123 0)
(0.913553 -0.0794523 0)
(0.910265 -0.0772 0)
(1.01581 -0.00229091 0)
(1.01683 -0.00789709 0)
(1.01856 -0.0127251 0)
(1.02082 -0.018296 0)
(1.02346 -0.0240117 0)
(1.02622 -0.0303364 0)
(1.02885 -0.0372225 0)
(1.03105 -0.0447701 0)
(1.03251 -0.0529419 0)
(1.03289 -0.0616695 0)
(1.03191 -0.0707866 0)
(1.02933 -0.0800511 0)
(1.02498 -0.0891617 0)
(1.01886 -0.0977518 0)
(1.01107 -0.105419 0)
(1.00186 -0.111803 0)
(0.991498 -0.116672 0)
(0.980343 -0.119919 0)
(0.968801 -0.121782 0)
(0.957139 -0.123061 0)
(0.945201 -0.124231 0)
(0.93226 -0.124419 0)
(0.918904 -0.122185 0)
(0.90938 -0.117829 0)
(0.906472 -0.11323 0)
(0.905592 -0.108708 0)
(0.902688 -0.103988 0)
(0.899121 -0.0997457 0)
(0.895924 -0.0960289 0)
(1.0168 -0.00231852 0)
(1.01791 -0.00797742 0)
(1.01978 -0.0128671 0)
(1.02226 -0.0185285 0)
(1.02519 -0.0243565 0)
(1.02833 -0.0308509 0)
(1.03142 -0.0379831 0)
(1.03418 -0.0458872 0)
(1.03627 -0.0545674 0)
(1.03735 -0.064004 0)
(1.03706 -0.0740783 0)
(1.03512 -0.084583 0)
(1.03131 -0.0952162 0)
(1.02554 -0.105578 0)
(1.01777 -0.115227 0)
(1.00809 -0.123758 0)
(0.996753 -0.130847 0)
(0.984201 -0.136181 0)
(0.971066 -0.139402 0)
(0.958308 -0.140003 0)
(0.947178 -0.137755 0)
(0.938949 -0.133608 0)
(0.933647 -0.129742 0)
(0.927088 -0.127369 0)
(0.915079 -0.124871 0)
(0.901612 -0.121675 0)
(0.892357 -0.118747 0)
(0.886117 -0.115649 0)
(0.881049 -0.112376 0)
(1.01769 -0.00233971 0)
(1.01888 -0.00803472 0)
(1.0209 -0.0129696 0)
(1.02358 -0.0186991 0)
(1.02678 -0.0246093 0)
(1.03028 -0.0312322 0)
(1.03382 -0.038555 0)
(1.03713 -0.0467416 0)
(1.03988 -0.0558373 0)
(1.0417 -0.0658728 0)
(1.04222 -0.07678 0)
(1.04111 -0.0883959 0)
(1.03808 -0.100451 0)
(1.03287 -0.112574 0)
(1.02534 -0.124324 0)
(1.01547 -0.135208 0)
(1.00351 -0.144739 0)
(0.989882 -0.152458 0)
(0.975114 -0.158094 0)
(0.959747 -0.162085 0)
(0.943942 -0.16546 0)
(0.927191 -0.168128 0)
(0.909116 -0.16812 0)
(0.892952 -0.164103 0)
(0.884166 -0.158286 0)
(0.880739 -0.152717 0)
(0.875835 -0.146732 0)
(0.869608 -0.140964 0)
(0.864241 -0.135959 0)
(1.01851 -0.00235593 0)
(1.01977 -0.00807392 0)
(1.02191 -0.0130404 0)
(1.02478 -0.0188188 0)
(1.02824 -0.0247849 0)
(1.03208 -0.0314996 0)
(1.03605 -0.0389613 0)
(1.0399 -0.0473591 0)
(1.0433 -0.0567761 0)
(1.0459 -0.0672915 0)
(1.04731 -0.0788922 0)
(1.04713 -0.0914768 0)
(1.045 -0.104839 0)
(1.04057 -0.118653 0)
(1.0336 -0.132473 0)
(1.024 -0.145739 0)
(1.01187 -0.157885 0)
(0.997473 -0.168395 0)
(0.981342 -0.176772 0)
(0.964408 -0.182362 0)
(0.948049 -0.184223 0)
(0.933652 -0.182115 0)
(0.922407 -0.178138 0)
(0.912612 -0.175575 0)
(0.898294 -0.17383 0)
(0.879651 -0.17034 0)
(0.864801 -0.166367 0)
(0.855149 -0.162325 0)
(0.84729 -0.157649 0)
(1.01925 -0.00236828 0)
(1.02057 -0.00809895 0)
(1.02284 -0.0130859 0)
(1.02587 -0.0188969 0)
(1.02958 -0.0248968 0)
(1.03373 -0.0316715 0)
(1.03811 -0.0392258 0)
(1.04247 -0.0477696 0)
(1.04652 -0.0574199 0)
(1.04989 -0.0683021 0)
(1.05219 -0.0804614 0)
(1.053 -0.0938657 0)
(1.0519 -0.108376 0)
(1.04849 -0.123717 0)
(1.04245 -0.13947 0)
(1.0335 -0.155089 0)
(1.02156 -0.169981 0)
(1.00679 -0.183539 0)
(0.989679 -0.195118 0)
(0.970902 -0.2043 0)
(0.950852 -0.211727 0)
(0.929255 -0.218407 0)
(0.905648 -0.222944 0)
(0.881551 -0.221858 0)
(0.86335 -0.215625 0)
(0.854282 -0.208738 0)
(0.846695 -0.20167 0)
(0.836586 -0.193868 0)
(0.827584 -0.186935 0)
(1.01993 -0.00237765 0)
(1.02131 -0.00811302 0)
(1.02369 -0.0131116 0)
(1.02687 -0.0189418 0)
(1.0308 -0.0249572 0)
(1.03524 -0.0317656 0)
(1.04 -0.0393728 0)
(1.04484 -0.0480071 0)
(1.04949 -0.0578144 0)
(1.05361 -0.0689621 0)
(1.05679 -0.0815509 0)
(1.05863 -0.0956141 0)
(1.05868 -0.111082 0)
(1.05649 -0.127748 0)
(1.05159 -0.14527 0)
(1.04358 -0.163156 0)
(1.03223 -0.1808 0)
(1.01761 -0.197539 0)
(1.00006 -0.212682 0)
(0.980176 -0.225384 0)
(0.958908 -0.234388 0)
(0.937805 -0.238099 0)
(0.918679 -0.236641 0)
(0.902578 -0.234198 0)
(0.884981 -0.234068 0)
(0.860746 -0.232274 0)
(0.83682 -0.227422 0)
(0.820657 -0.222293 0)
(0.808288 -0.21601 0)
(1.02055 -0.00238467 0)
(1.02198 -0.00811872 0)
(1.02446 -0.0131222 0)
(1.02779 -0.0189608 0)
(1.03192 -0.0249771 0)
(1.03662 -0.0317982 0)
(1.04172 -0.039426 0)
(1.04701 -0.0481052 0)
(1.05222 -0.0580052 0)
(1.05705 -0.0693285 0)
(1.0611 -0.0822248 0)
(1.06399 -0.0967892 0)
(1.06523 -0.113027 0)
(1.06433 -0.130817 0)
(1.06073 -0.149908 0)
(1.05396 -0.169873 0)
(1.04366 -0.190129 0)
(1.02973 -0.210022 0)
(1.01235 -0.228838 0)
(0.991845 -0.245681 0)
(0.968467 -0.259987 0)
(0.942116 -0.272703 0)
(0.912612 -0.2844 0)
(0.880332 -0.291231 0)
(0.849537 -0.28852 0)
(0.82883 -0.280515 0)
(0.816015 -0.272723 0)
(0.800802 -0.263226 0)
(0.78536 -0.253441 0)
(1.02112 -0.00238986 0)
(1.02259 -0.00811813 0)
(1.02516 -0.0131214 0)
(1.02862 -0.01896 0)
(1.03293 -0.0249662 0)
(1.03787 -0.0317836 0)
(1.04328 -0.0394066 0)
(1.04898 -0.0480944 0)
(1.05472 -0.0580337 0)
(1.06021 -0.0694553 0)
(1.06511 -0.0825524 0)
(1.06901 -0.0974789 0)
(1.07144 -0.114317 0)
(1.07186 -0.133029 0)
(1.0697 -0.153446 0)
(1.06442 -0.175231 0)
(1.05554 -0.197885 0)
(1.04277 -0.22081 0)
(1.02611 -0.243354 0)
(1.00569 -0.264641 0)
(0.9817 -0.283332 0)
(0.955029 -0.29726 0)
(0.927748 -0.303877 0)
(0.902207 -0.304484 0)
(0.878481 -0.306378 0)
(0.849216 -0.309715 0)
(0.813476 -0.306817 0)
(0.784514 -0.300499 0)
(0.764265 -0.293038 0)
(1.02163 -0.00239358 0)
(1.02315 -0.00811289 0)
(1.0258 -0.0131124 0)
(1.02937 -0.0189444 0)
(1.03385 -0.0249323 0)
(1.039 -0.0317338 0)
(1.0447 -0.0393324 0)
(1.05077 -0.0480001 0)
(1.05699 -0.0579363 0)
(1.06311 -0.0693936 0)
(1.06879 -0.0826037 0)
(1.07365 -0.0977742 0)
(1.07724 -0.115055 0)
(1.07901 -0.134487 0)
(1.07837 -0.155983 0)
(1.07473 -0.179312 0)
(1.06751 -0.204092 0)
(1.0563 -0.229811 0)
(1.04096 -0.255881 0)
(1.02145 -0.281479 0)
(0.997438 -0.305393 0)
(0.968448 -0.327126 0)
(0.934252 -0.348281 0)
(0.894896 -0.368094 0)
(0.851415 -0.377797 0)
(0.812148 -0.373135 0)
(0.786372 -0.364698 0)
(0.764563 -0.355659 0)
(0.739053 -0.342721 0)
(1.0221 -0.00239616 0)
(1.02365 -0.00810433 0)
(1.02638 -0.0130975 0)
(1.03004 -0.0189183 0)
(1.03468 -0.0248823 0)
(1.04001 -0.031659 0)
(1.04597 -0.0392187 0)
(1.05238 -0.0478449 0)
(1.05905 -0.0577456 0)
(1.06573 -0.0691906 0)
(1.07213 -0.0824442 0)
(1.0779 -0.0977588 0)
(1.08261 -0.115343 0)
(1.08571 -0.135311 0)
(1.0866 -0.157658 0)
(1.08465 -0.182257 0)
(1.07926 -0.208848 0)
(1.06995 -0.237028 0)
(1.05644 -0.266309 0)
(1.03847 -0.29609 0)
(1.01543 -0.325361 0)
(0.986917 -0.352326 0)
(0.954296 -0.373624 0)
(0.919841 -0.38525 0)
(0.885778 -0.390837 0)
(0.850203 -0.401409 0)
(0.803856 -0.409069 0)
(0.753838 -0.404085 0)
(0.717203 -0.395981 0)
(1.02251 -0.00239786 0)
(1.0241 -0.00809353 0)
(1.0269 -0.0130788 0)
(1.03065 -0.0188851 0)
(1.03542 -0.0248215 0)
(1.04092 -0.0315673 0)
(1.04711 -0.0390781 0)
(1.05382 -0.0476479 0)
(1.06088 -0.0574894 0)
(1.06808 -0.0688861 0)
(1.07515 -0.0821282 0)
(1.08177 -0.0975047 0)
(1.08752 -0.115275 0)
(1.09191 -0.13562 0)
(1.09429 -0.158616 0)
(1.09405 -0.184222 0)
(1.09058 -0.21229 0)
(1.0834 -0.242551 0)
(1.07209 -0.274652 0)
(1.05625 -0.308161 0)
(1.03518 -0.342273 0)
(1.00774 -0.375654 0)
(0.972871 -0.408313 0)
(0.930081 -0.443039 0)
(0.878579 -0.476413 0)
(0.819286 -0.490848 0)
(0.766923 -0.484644 0)
(0.730529 -0.477579 0)
(0.692968 -0.465334 0)
(1.02289 -0.00239888 0)
(1.0245 -0.00808139 0)
(1.02736 -0.0130579 0)
(1.03118 -0.0188475 0)
(1.03608 -0.0247545 0)
(1.04173 -0.0314653 0)
(1.04812 -0.0389212 0)
(1.0551 -0.0474252 0)
(1.06252 -0.0571911 0)
(1.07018 -0.0685131 0)
(1.07786 -0.0817017 0)
(1.08526 -0.0970761 0)
(1.09199 -0.114939 0)
(1.09757 -0.135531 0)
(1.1014 -0.158997 0)
(1.10283 -0.185372 0)
(1.10131 -0.214602 0)
(1.09634 -0.246557 0)
(1.0875 -0.281031 0)
(1.07424 -0.317745 0)
(1.05574 -0.356292 0)
(1.03075 -0.39592 0)
(0.998529 -0.434595 0)
(0.960228 -0.467079 0)
(0.917131 -0.487091 0)
(0.87126 -0.503504 0)
(0.817528 -0.530782 0)
(0.744783 -0.543306 0)
(0.673443 -0.53439 0)
(1.02322 -0.00239939 0)
(1.02486 -0.00806857 0)
(1.02777 -0.0130358 0)
(1.03166 -0.0188076 0)
(1.03667 -0.0246845 0)
(1.04244 -0.0313585 0)
(1.04902 -0.0387563 0)
(1.05623 -0.0471892 0)
(1.06396 -0.056869 0)
(1.07205 -0.0680983 0)
(1.08028 -0.0812026 0)
(1.08839 -0.096527 0)
(1.09602 -0.11441 0)
(1.10271 -0.135141 0)
(1.10789 -0.158924 0)
(1.11095 -0.185862 0)
(1.11132 -0.215981 0)
(1.10856 -0.249253 0)
(1.1023 -0.285634 0)
(1.09195 -0.325011 0)
(1.07654 -0.367193 0)
(1.0551 -0.411889 0)
(1.02597 -0.458222 0)
(0.985942 -0.506872 0)
(0.934079 -0.563801 0)
(0.868088 -0.622051 0)
(0.783946 -0.645769 0)
(0.70571 -0.639297 0)
(0.647505 -0.634299 0)
(1.02351 -0.00239952 0)
(1.02518 -0.0080556 0)
(1.02813 -0.0130134 0)
(1.03209 -0.0187671 0)
(1.03719 -0.0246143 0)
(1.04307 -0.0312508 0)
(1.04981 -0.0385899 0)
(1.05723 -0.0469496 0)
(1.06524 -0.0565377 0)
(1.0737 -0.0676633 0)
(1.08242 -0.0806632 0)
(1.09117 -0.0959033 0)
(1.09962 -0.113752 0)
(1.10734 -0.134538 0)
(1.11378 -0.158515 0)
(1.11836 -0.185845 0)
(1.12054 -0.216619 0)
(1.11991 -0.250881 0)
(1.11621 -0.288711 0)
(1.10894 -0.330194 0)
(1.09698 -0.375296 0)
(1.07939 -0.424236 0)
(1.05515 -0.477545 0)
(1.02194 -0.533284 0)
(0.978707 -0.582791 0)
(0.925481 -0.61605 0)
(0.864277 -0.656655 0)
(0.779328 -0.720563 0)
(0.654613 -0.734351 0)
(1.02378 -0.00239937 0)
(1.02547 -0.00804286 0)
(1.02846 -0.0129914 0)
(1.03247 -0.0187273 0)
(1.03765 -0.0245458 0)
(1.04363 -0.0311453 0)
(1.05051 -0.0384266 0)
(1.05811 -0.0467135 0)
(1.06637 -0.0562082 0)
(1.07515 -0.0672251 0)
(1.08431 -0.0801084 0)
(1.09363 -0.0952407 0)
(1.10282 -0.113014 0)
(1.11147 -0.133792 0)
(1.11907 -0.157867 0)
(1.12505 -0.185449 0)
(1.12892 -0.216682 0)
(1.13033 -0.251663 0)
(1.12907 -0.290532 0)
(1.12483 -0.333564 0)
(1.11659 -0.380957 0)
(1.10321 -0.433 0)
(1.08463 -0.490834 0)
(1.05817 -0.555059 0)
(1.0148 -0.626501 0)
(0.954707 -0.719665 0)
(0.87819 -0.83185 0)
(0.748327 -0.884293 0)
(0.592129 -0.874169 0)
(1.02401 -0.00239901 0)
(1.02572 -0.00803065 0)
(1.02874 -0.0129702 0)
(1.0328 -0.0186889 0)
(1.03805 -0.0244803 0)
(1.04412 -0.0310441 0)
(1.05112 -0.03827 0)
(1.05888 -0.0464863 0)
(1.06735 -0.055889 0)
(1.07642 -0.0667965 0)
(1.08596 -0.0795578 0)
(1.09579 -0.0945685 0)
(1.10564 -0.11224 0)
(1.11513 -0.132962 0)
(1.12377 -0.157064 0)
(1.13103 -0.184789 0)
(1.13647 -0.216324 0)
(1.13978 -0.251805 0)
(1.14079 -0.291398 0)
(1.13937 -0.335463 0)
(1.13488 -0.384496 0)
(1.12606 -0.438863 0)
(1.11257 -0.499802 0)
(1.0942 -0.571023 0)
(1.06661 -0.652839 0)
(1.02395 -0.727678 0)
(0.960339 -0.779546 0)
(0.880401 -0.884156 0)
(0.717704 -1.03824 0)
(1.02421 -0.00239851 0)
(1.02594 -0.00801915 0)
(1.02899 -0.0129502 0)
(1.03309 -0.0186528 0)
(1.0384 -0.0244187 0)
(1.04455 -0.0309488 0)
(1.05166 -0.0381224 0)
(1.05955 -0.0462716 0)
(1.06822 -0.0555858 0)
(1.07754 -0.0663864 0)
(1.08741 -0.079025 0)
(1.09769 -0.0939071 0)
(1.10812 -0.11146 0)
(1.11836 -0.132095 0)
(1.12794 -0.156169 0)
(1.13636 -0.183956 0)
(1.1432 -0.215667 0)
(1.14824 -0.251472 0)
(1.15136 -0.291545 0)
(1.15248 -0.336235 0)
(1.15145 -0.386254 0)
(1.14733 -0.442297 0)
(1.13917 -0.505189 0)
(1.12887 -0.578865 0)
(1.11473 -0.66715 0)
(1.07586 -0.764695 0)
(1.01331 -0.908956 0)
(0.94341 -1.15586 0)
(0.669931 -1.2362 0)
(0.998695 -0.00261804 0)
(0.998954 -0.00247695 0)
(0.999054 -0.00233739 0)
(0.999 -0.00219782 0)
(0.99879 -0.00205666 0)
(0.998406 -0.00191219 0)
(0.997826 -0.001763 0)
(0.997022 -0.0016083 0)
(0.99597 -0.00144824 0)
(0.994656 -0.00128414 0)
(0.993085 -0.00111884 0)
(0.991291 -0.000956662 0)
(0.989338 -0.000803268 0)
(0.98733 -0.000665047 0)
(0.985398 -0.000548249 0)
(0.983693 -0.000457878 0)
(0.982369 -0.000396566 0)
(0.981557 -0.000363689 0)
(0.981343 -0.000354953 0)
(0.997093 -0.00365301 0)
(0.996911 -0.00351453 0)
(0.996843 -0.00337254 0)
(0.996878 -0.00323261 0)
(0.997019 -0.0030981 0)
(0.997286 -0.00297215 0)
(0.997712 -0.00285749 0)
(0.998341 -0.00275587 0)
(0.999223 -0.00266756 0)
(1.0004 -0.00259068 0)
(1.00191 -0.00252054 0)
(1.00375 -0.00244921 0)
(1.00588 -0.00236553 0)
(1.00821 -0.00225583 0)
(1.0106 -0.00210543 0)
(1.01285 -0.00190089 0)
(1.01476 -0.00163261 0)
(1.01612 -0.00129732 0)
(1.01677 -0.000899657 0)
(0.993044 -0.00740873 0)
(0.993165 -0.00703097 0)
(0.993232 -0.00664271 0)
(0.993245 -0.00624307 0)
(0.993193 -0.00583209 0)
(0.993052 -0.00540908 0)
(0.992788 -0.00497324 0)
(0.992351 -0.00452403 0)
(0.991683 -0.00406142 0)
(0.990722 -0.00358648 0)
(0.989409 -0.00310206 0)
(0.987708 -0.00261338 0)
(0.985615 -0.00212842 0)
(0.983183 -0.00165772 0)
(0.980527 -0.0012134 0)
(0.977831 -0.000807464 0)
(0.975333 -0.000449464 0)
(0.973294 -0.000144177 0)
(0.971955 0.000110122 0)
(0.988634 -0.0106954 0)
(0.988224 -0.0103285 0)
(0.987912 -0.00994999 0)
(0.987686 -0.00956315 0)
(0.987551 -0.00916873 0)
(0.98752 -0.00876862 0)
(0.987624 -0.00836572 0)
(0.987907 -0.00796372 0)
(0.988427 -0.0075668 0)
(0.989248 -0.00717917 0)
(0.990432 -0.00680418 0)
(0.992024 -0.00644327 0)
(0.994034 -0.0060949 0)
(0.996416 -0.00575388 0)
(0.999053 -0.00541138 0)
(1.00176 -0.00505594 0)
(1.00427 -0.00467562 0)
(1.00632 -0.00426065 0)
(1.00763 -0.00380605 0)
(0.981928 -0.0168816 0)
(0.981803 -0.0161549 0)
(0.981643 -0.0154235 0)
(0.98146 -0.0146874 0)
(0.981257 -0.0139476 0)
(0.98103 -0.0132038 0)
(0.980761 -0.0124551 0)
(0.980422 -0.0116999 0)
(0.979966 -0.0109361 0)
(0.979333 -0.0101611 0)
(0.97845 -0.0093729 0)
(0.977243 -0.00857066 0)
(0.975653 -0.00775631 0)
(0.973662 -0.00693533 0)
(0.971315 -0.00611709 0)
(0.968741 -0.00531396 0)
(0.966155 -0.00453901 0)
(0.963839 -0.0038028 0)
(0.962092 -0.00311009 0)
(0.97467 -0.0202351 0)
(0.97414 -0.0196249 0)
(0.9737 -0.0189982 0)
(0.973338 -0.0183581 0)
(0.973053 -0.0177038 0)
(0.972851 -0.0170346 0)
(0.972751 -0.0163509 0)
(0.972783 -0.0156529 0)
(0.972989 -0.0149416 0)
(0.973426 -0.0142181 0)
(0.974162 -0.0134834 0)
(0.975265 -0.0127375 0)
(0.976789 -0.0119785 0)
(0.978749 -0.0112013 0)
(0.981092 -0.0103975 0)
(0.983679 -0.00955598 0)
(0.986273 -0.00866521 0)
(0.988569 -0.00771734 0)
(0.990235 -0.00671218 0)
(0.966254 -0.0264353 0)
(0.965856 -0.0252827 0)
(0.965432 -0.0241109 0)
(0.964993 -0.0229202 0)
(0.964547 -0.0217132 0)
(0.964092 -0.020491 0)
(0.963619 -0.0192545 0)
(0.963106 -0.0180044 0)
(0.96252 -0.0167415 0)
(0.961808 -0.0154667 0)
(0.9609 -0.0141812 0)
(0.95971 -0.0128878 0)
(0.958154 -0.0115918 0)
(0.95617 -0.0103024 0)
(0.953754 -0.00903303 0)
(0.950996 -0.00780072 0)
(0.948103 -0.00662287 0)
(0.945395 -0.00551223 0)
(0.943256 -0.00447095 0)
(0.956365 -0.0319983 0)
(0.955487 -0.0310587 0)
(0.954698 -0.0300923 0)
(0.953985 -0.0291042 0)
(0.953348 -0.0280932 0)
(0.952791 -0.0270589 0)
(0.95233 -0.0260012 0)
(0.95199 -0.0249204 0)
(0.95181 -0.0238165 0)
(0.951842 -0.0226898 0)
(0.952158 -0.0215396 0)
(0.952841 -0.0203639 0)
(0.953979 -0.0191572 0)
(0.955632 -0.0179091 0)
(0.957804 -0.0166029 0)
(0.960395 -0.0152158 0)
(0.963174 -0.0137226 0)
(0.965776 -0.0121023 0)
(0.967762 -0.0103481 0)
(0.946297 -0.0408712 0)
(0.945479 -0.0391945 0)
(0.944648 -0.0374779 0)
(0.943817 -0.0357224 0)
(0.942994 -0.0339308 0)
(0.942182 -0.0321034 0)
(0.941374 -0.0302403 0)
(0.940555 -0.0283413 0)
(0.939696 -0.0264061 0)
(0.938748 -0.0244341 0)
(0.937637 -0.0224256 0)
(0.936263 -0.0203824 0)
(0.934506 -0.0183104 0)
(0.932248 -0.0162223 0)
(0.929411 -0.0141396 0)
(0.926022 -0.012094 0)
(0.922267 -0.0101239 0)
(0.918526 -0.0082662 0)
(0.915338 -0.00654362 0)
(0.934026 -0.0495829 0)
(0.932579 -0.0481428 0)
(0.931219 -0.0466496 0)
(0.929933 -0.045111 0)
(0.928715 -0.0435272 0)
(0.927569 -0.0418993 0)
(0.926503 -0.0402291 0)
(0.925536 -0.0385192 0)
(0.924697 -0.0367724 0)
(0.924036 -0.0349923 0)
(0.923626 -0.033183 0)
(0.923568 -0.0313482 0)
(0.923989 -0.0294889 0)
(0.925023 -0.0276003 0)
(0.926769 -0.0256677 0)
(0.929228 -0.0236626 0)
(0.932225 -0.021543 0)
(0.935366 -0.0192614 0)
(0.938058 -0.0167811 0)
(0.921864 -0.0626803 0)
(0.920322 -0.0603467 0)
(0.918788 -0.0579421 0)
(0.917278 -0.0554705 0)
(0.915804 -0.0529354 0)
(0.914372 -0.0503379 0)
(0.912983 -0.0476792 0)
(0.911633 -0.0449606 0)
(0.910307 -0.0421833 0)
(0.908971 -0.0393482 0)
(0.907568 -0.036456 0)
(0.906003 -0.0335074 0)
(0.904139 -0.030505 0)
(0.901803 -0.0274566 0)
(0.89882 -0.0243801 0)
(0.895082 -0.0213097 0)
(0.890652 -0.0182983 0)
(0.885875 -0.0154109 0)
(0.88141 -0.0127065 0)
(0.907632 -0.0750415 0)
(0.905307 -0.0728863 0)
(0.903091 -0.0706299 0)
(0.900972 -0.0682863 0)
(0.898946 -0.0658627 0)
(0.897015 -0.0633675 0)
(0.895188 -0.0608096 0)
(0.893478 -0.0581984 0)
(0.891908 -0.0555429 0)
(0.890512 -0.0528521 0)
(0.889347 -0.0501353 0)
(0.8885 -0.0474014 0)
(0.888101 -0.0446583 0)
(0.888322 -0.0419102 0)
(0.88935 -0.0391511 0)
(0.891325 -0.0363567 0)
(0.894223 -0.0334759 0)
(0.897725 -0.0304311 0)
(0.901153 -0.0271357 0)
(0.893064 -0.0927179 0)
(0.89041 -0.0895471 0)
(0.887818 -0.0862643 0)
(0.885311 -0.0828788 0)
(0.882907 -0.079394 0)
(0.88062 -0.0758103 0)
(0.878455 -0.072128 0)
(0.876414 -0.0683479 0)
(0.874491 -0.064471 0)
(0.872664 -0.0604981 0)
(0.870894 -0.0564302 0)
(0.869105 -0.0522678 0)
(0.867172 -0.0480111 0)
(0.864906 -0.0436628 0)
(0.862057 -0.039233 0)
(0.858366 -0.0347504 0)
(0.853677 -0.0302741 0)
(0.848138 -0.0258995 0)
(0.842385 -0.021744 0)
(0.876969 -0.109221 0)
(0.873365 -0.10602 0)
(0.869932 -0.102623 0)
(0.866664 -0.0990585 0)
(0.863557 -0.0953447 0)
(0.860616 -0.0915043 0)
(0.857846 -0.0875594 0)
(0.855257 -0.0835329 0)
(0.852862 -0.0794472 0)
(0.850682 -0.0753243 0)
(0.84875 -0.0711856 0)
(0.847125 -0.0670524 0)
(0.845905 -0.0629457 0)
(0.845251 -0.0588852 0)
(0.845391 -0.054885 0)
(0.846589 -0.0509424 0)
(0.849042 -0.0470199 0)
(0.852666 -0.0430262 0)
(0.856863 -0.0388154 0)
(0.859541 -0.131402 0)
(0.855218 -0.126991 0)
(0.851063 -0.122392 0)
(0.8471 -0.117616 0)
(0.843361 -0.112673 0)
(0.839869 -0.107568 0)
(0.836637 -0.102305 0)
(0.833673 -0.0968934 0)
(0.830977 -0.0913402 0)
(0.82854 -0.0856543 0)
(0.826336 -0.0798436 0)
(0.824314 -0.0739153 0)
(0.82238 -0.0678752 0)
(0.820373 -0.0617277 0)
(0.818034 -0.055479 0)
(0.814999 -0.0491471 0)
(0.810872 -0.042783 0)
(0.805428 -0.0364962 0)
(0.798997 -0.0304675 0)
(0.840863 -0.153007 0)
(0.83526 -0.14822 0)
(0.829941 -0.143029 0)
(0.82494 -0.137515 0)
(0.820262 -0.13171 0)
(0.815918 -0.125665 0)
(0.811925 -0.119428 0)
(0.808292 -0.113047 0)
(0.805029 -0.106574 0)
(0.802145 -0.100059 0)
(0.799653 -0.0935547 0)
(0.797579 -0.0871151 0)
(0.795976 -0.0807932 0)
(0.794947 -0.0746419 0)
(0.794683 -0.0687114 0)
(0.795485 -0.063041 0)
(0.79773 -0.0576352 0)
(0.801682 -0.0524303 0)
(0.807098 -0.0472403 0)
(0.819998 -0.180548 0)
(0.812982 -0.174151 0)
(0.806351 -0.167401 0)
(0.800118 -0.160266 0)
(0.794339 -0.152795 0)
(0.78907 -0.145012 0)
(0.784335 -0.136953 0)
(0.780162 -0.128663 0)
(0.776562 -0.120183 0)
(0.773537 -0.111559 0)
(0.771073 -0.102829 0)
(0.769134 -0.0940303 0)
(0.76765 -0.0851901 0)
(0.766491 -0.0763299 0)
(0.765429 -0.0674643 0)
(0.764079 -0.0586047 0)
(0.761871 -0.0497915 0)
(0.758149 -0.0411198 0)
(0.752549 -0.0328109 0)
(0.797745 -0.209117 0)
(0.788709 -0.201926 0)
(0.78017 -0.193862 0)
(0.772229 -0.185149 0)
(0.764972 -0.175846 0)
(0.758414 -0.166044 0)
(0.752625 -0.155851 0)
(0.747624 -0.14536 0)
(0.743438 -0.134682 0)
(0.740069 -0.12393 0)
(0.737515 -0.113224 0)
(0.735764 -0.102686 0)
(0.734814 -0.0924488 0)
(0.73469 -0.0826452 0)
(0.735484 -0.0734094 0)
(0.73742 -0.064876 0)
(0.740913 -0.0571326 0)
(0.746503 -0.0502211 0)
(0.75462 -0.0440085 0)
(0.772826 -0.24455 0)
(0.761188 -0.235083 0)
(0.750223 -0.224809 0)
(0.740105 -0.213673 0)
(0.730859 -0.201729 0)
(0.722669 -0.189118 0)
(0.715575 -0.175926 0)
(0.70966 -0.162304 0)
(0.704954 -0.148388 0)
(0.701485 -0.134323 0)
(0.699244 -0.120248 0)
(0.698204 -0.106293 0)
(0.698299 -0.092569 0)
(0.699409 -0.0791629 0)
(0.701322 -0.0661382 0)
(0.703664 -0.0535096 0)
(0.705762 -0.0413341 0)
(0.706687 -0.0296612 0)
(0.705003 -0.0186654 0)
(0.74663 -0.283144 0)
(0.731292 -0.272332 0)
(0.717057 -0.259861 0)
(0.703812 -0.245897 0)
(0.691981 -0.230766 0)
(0.681567 -0.214551 0)
(0.672763 -0.197519 0)
(0.665622 -0.179868 0)
(0.660228 -0.161833 0)
(0.656587 -0.14365 0)
(0.654702 -0.125568 0)
(0.654532 -0.10784 0)
(0.656017 -0.0907366 0)
(0.659081 -0.0745418 0)
(0.663679 -0.0595469 0)
(0.669853 -0.0461101 0)
(0.677962 -0.0344624 0)
(0.68841 -0.0249029 0)
(0.70255 -0.0176112 0)
(0.717229 -0.33031 0)
(0.697722 -0.316721 0)
(0.678918 -0.300822 0)
(0.661946 -0.283259 0)
(0.646642 -0.263828 0)
(0.633453 -0.243006 0)
(0.622458 -0.221014 0)
(0.613841 -0.198177 0)
(0.607632 -0.17482 0)
(0.603908 -0.151261 0)
(0.60265 -0.12782 0)
(0.603832 -0.10481 0)
(0.60738 -0.0825312 0)
(0.613167 -0.0612472 0)
(0.620972 -0.041206 0)
(0.630453 -0.022445 0)
(0.640653 -0.00517992 0)
(0.650872 0.010647 0)
(0.658226 0.025131 0)
(0.688192 -0.383703 0)
(0.661319 -0.367265 0)
(0.637144 -0.348287 0)
(0.614778 -0.325947 0)
(0.595191 -0.301345 0)
(0.578439 -0.274722 0)
(0.564841 -0.24655 0)
(0.554407 -0.217318 0)
(0.547306 -0.187426 0)
(0.543492 -0.157298 0)
(0.543001 -0.127346 0)
(0.54579 -0.097985 0)
(0.551798 -0.0696572 0)
(0.560922 -0.0428691 0)
(0.57304 -0.0181079 0)
(0.587866 0.00374215 0)
(0.606057 0.0222861 0)
(0.626866 0.0364624 0)
(0.653108 0.0450718 0)
(0.653972 -0.446979 0)
(0.620752 -0.427983 0)
(0.588838 -0.40324 0)
(0.560418 -0.375086 0)