/*--------------------------------*- C++ -*----------------------------------*\
  =========                 |
  \\      /  F ield         | OpenFOAM: The Open Source CFD Toolbox
   \\    /   O peration     | Website:  https://openfoam.org
    \\  /    A nd           | Version:  10
     \\/     M anipulation  |
\*---------------------------------------------------------------------------*/
FoamFile
{
    format      ascii;
    class       volVectorField;
    location    "0";
    object      U;
}
// * * * * * * * * * * * * * * * * * * * * * * * * * * * * * * * * * * * * * //

dimensions      [0 1 -1 0 0 0 0];

internalField   nonuniform List<vector> 
18483
(
(1 -0.000199276 0)
(1 -0.000714017 0)
(1 -0.00114146 0)
(1 -0.001606 0)
(1 -0.00205484 0)
(1 -0.00249482 0)
(1 -0.0029082 0)
(0.999999 -0.00328182 0)
(0.999996 -0.00360417 0)
(0.999992 -0.00386736 0)
(0.999985 -0.00407091 0)
(0.999972 -0.0042256 0)
(0.999951 -0.00434911 0)
(0.999916 -0.00448915 0)
(0.999859 -0.00469785 0)
(0.999766 -0.00500661 0)
(0.999594 -0.00537502 0)
(0.999162 -0.00570095 0)
(0.998006 -0.00587156 0)
(0.995569 -0.00575823 0)
(0.992165 -0.00533535 0)
(0.989526 -0.00476373 0)
(0.989219 -0.00421973 0)
(0.990942 -0.00374995 0)
(0.993322 -0.00335197 0)
(0.995389 -0.00302152 0)
(0.996858 -0.00274935 0)
(0.9978 -0.00252599 0)
(0.998368 -0.00234261 0)
(1.00061 -0.000572516 0)
(1.00064 -0.00203547 0)
(1.00071 -0.00324407 0)
(1.00078 -0.00455708 0)
(1.00085 -0.00581623 0)
(1.00091 -0.00704747 0)
(1.00094 -0.00820077 0)
(1.00093 -0.00924078 0)
(1.00088 -0.0101332 0)
(1.00079 -0.0108566 0)
(1.00067 -0.0114002 0)
(1.00055 -0.0117885 0)
(1.00047 -0.0120501 0)
(1.00047 -0.0121237 0)
(1.00058 -0.0119146 0)
(1.00074 -0.0113616 0)
(1.00086 -0.0105337 0)
(1.00092 -0.00962977 0)
(1.00109 -0.0088801 0)
(1.00187 -0.00854248 0)
(1.0036 -0.00877056 0)
(1.00542 -0.00933775 0)
(1.00573 -0.00984207 0)
(1.00426 -0.010168 0)
(1.00212 -0.0103583 0)
(1.00026 -0.0104487 0)
(0.998968 -0.010473 0)
(0.998152 -0.0104555 0)
(0.997657 -0.0104134 0)
(1.00174 -0.000896531 0)
(1.00182 -0.00316264 0)
(1.00199 -0.00502461 0)
(1.00218 -0.00704885 0)
(1.00236 -0.00897598 0)
(1.00249 -0.0108569 0)
(1.00254 -0.0126144 0)
(1.00249 -0.014196 0)
(1.00232 -0.0155432 0)
(1.00204 -0.0166186 0)
(1.00166 -0.0173858 0)
(1.00123 -0.0178218 0)
(1.0008 -0.0179375 0)
(1.00038 -0.0177468 0)
(0.999912 -0.0173855 0)
(0.999312 -0.0171153 0)
(0.99859 -0.017018 0)
(0.997801 -0.0169539 0)
(0.996888 -0.016773 0)
(0.995604 -0.0163578 0)
(0.993667 -0.0156104 0)
(0.991435 -0.014618 0)
(0.990098 -0.0136945 0)
(0.990333 -0.0129348 0)
(0.991517 -0.0122473 0)
(0.992784 -0.011624 0)
(0.993765 -0.0110756 0)
(0.994439 -0.0106039 0)
(0.994884 -0.0102053 0)
(1.00311 -0.00118885 0)
(1.00325 -0.00416308 0)
(1.00354 -0.00659764 0)
(1.00384 -0.00924839 0)
(1.00415 -0.0117583 0)
(1.00436 -0.014212 0)
(1.00444 -0.0165094 0)
(1.00432 -0.0185887 0)
(1.00399 -0.020371 0)
(1.00344 -0.0217988 0)
(1.0027 -0.0228287 0)
(1.00178 -0.0234377 0)
(1.00075 -0.0236881 0)
(0.999629 -0.0236981 0)
(0.998472 -0.0235384 0)
(0.997363 -0.0230653 0)
(0.996382 -0.0220639 0)
(0.99555 -0.0206314 0)
(0.995081 -0.0190766 0)
(0.995514 -0.0176478 0)
(0.997221 -0.0164952 0)
(0.999412 -0.0156968 0)
(1.00031 -0.0150598 0)
(0.999083 -0.0144319 0)
(0.996714 -0.0138966 0)
(0.994455 -0.0134452 0)
(0.992782 -0.0130255 0)
(0.991649 -0.012618 0)
(0.99089 -0.0122208 0)
(1.00454 -0.00146539 0)
(1.00475 -0.00509914 0)
(1.00516 -0.00806778 0)
(1.0056 -0.0113042 0)
(1.00604 -0.0143593 0)
(1.00636 -0.0173613 0)
(1.00649 -0.0201896 0)
(1.00635 -0.0227798 0)
(1.00588 -0.025036 0)
(1.00509 -0.0268808 0)
(1.00399 -0.0282664 0)
(1.00263 -0.0291736 0)
(1.0011 -0.0296154 0)
(0.999513 -0.0295917 0)
(0.997973 -0.0291071 0)
(0.996494 -0.0282828 0)
(0.994976 -0.0274508 0)
(0.99336 -0.0268666 0)
(0.991598 -0.0263886 0)
(0.989426 -0.0257418 0)
(0.986489 -0.0247373 0)
(0.983119 -0.023338 0)
(0.980777 -0.0218072 0)
(0.980553 -0.0203967 0)
(0.981715 -0.0190566 0)
(0.982962 -0.0177812 0)
(0.983776 -0.0166374 0)
(0.984194 -0.0156481 0)
(0.984362 -0.0148085 0)
(1.00603 -0.00173114 0)
(1.00631 -0.00599308 0)
(1.00684 -0.00947285 0)
(1.00743 -0.0132706 0)
(1.00803 -0.0168526 0)
(1.00849 -0.0203966 0)
(1.0087 -0.0237656 0)
(1.00857 -0.0268998 0)
(1.00801 -0.029691 0)
(1.007 -0.032048 0)
(1.00555 -0.0338992 0)
(1.00372 -0.0351939 0)
(1.00162 -0.0359033 0)
(0.999354 -0.0360323 0)
(0.996967 -0.035687 0)
(0.994522 -0.0350088 0)
(0.992133 -0.0339424 0)
(0.989955 -0.0322884 0)
(0.988161 -0.0301091 0)
(0.987201 -0.0278073 0)
(0.987711 -0.0257701 0)
(0.989341 -0.0241931 0)
(0.990117 -0.022907 0)
(0.988489 -0.0216711 0)
(0.985311 -0.0205666 0)
(0.982311 -0.0196294 0)
(0.980145 -0.01877 0)
(0.978688 -0.0179508 0)
(0.977694 -0.0171713 0)
(1.00761 -0.00198164 0)
(1.00797 -0.00683194 0)
(1.00862 -0.0107947 0)
(1.00937 -0.0151254 0)
(1.01014 -0.019214 0)
(1.01076 -0.023292 0)
(1.0111 -0.0272116 0)
(1.01101 -0.0309286 0)
(1.0104 -0.0343297 0)
(1.00921 -0.0373149 0)
(1.00743 -0.0397851 0)
(1.00513 -0.0416617 0)
(1.00242 -0.042911 0)
(0.999417 -0.0435325 0)
(0.996238 -0.0435278 0)
(0.993036 -0.0429092 0)
(0.989906 -0.0418382 0)
(0.986815 -0.0406813 0)
(0.983709 -0.039693 0)
(0.980394 -0.0387311 0)
(0.976325 -0.0374739 0)
(0.971441 -0.0357461 0)
(0.96742 -0.0337447 0)
(0.966176 -0.0318067 0)
(0.967064 -0.0299194 0)
(0.968105 -0.028039 0)
(0.968526 -0.026297 0)
(0.96849 -0.0247587 0)
(0.968235 -0.0234284 0)
(1.00925 -0.0022082 0)
(1.00969 -0.00758805 0)
(1.01048 -0.0119919 0)
(1.01139 -0.0168138 0)
(1.01236 -0.0213774 0)
(1.01316 -0.02597 0)
(1.01366 -0.0304386 0)
(1.01369 -0.0347613 0)
(1.01311 -0.0388244 0)
(1.01184 -0.042521 0)
(1.00986 -0.0457304 0)
(1.00721 -0.0483418 0)
(1.004 -0.0502745 0)
(1.00037 -0.0514708 0)
(0.996447 -0.0519079 0)
(0.99233 -0.0516547 0)
(0.988114 -0.0508531 0)
(0.983989 -0.04944 0)
(0.98029 -0.047215 0)
(0.977573 -0.0443653 0)
(0.976595 -0.0414753 0)
(0.977379 -0.0390523 0)
(0.977853 -0.0371155 0)
(0.975512 -0.0353361 0)
(0.970905 -0.0337199 0)
(0.966548 -0.0323801 0)
(0.963469 -0.0311773 0)
(0.961368 -0.0300302 0)
(0.959874 -0.0289396 0)
(1.0109 -0.00240368 0)
(1.01143 -0.00823879 0)
(1.01235 -0.0130297 0)
(1.01344 -0.0182887 0)
(1.0146 -0.023284 0)
(1.01562 -0.0283571 0)
(1.01633 -0.0333532 0)
(1.01655 -0.0382758 0)
(1.0161 -0.0430177 0)
(1.01487 -0.0474761 0)
(1.01278 -0.0515213 0)
(1.00986 -0.0550164 0)
(1.00616 -0.0578389 0)
(1.00181 -0.0599109 0)
(0.996973 -0.0612168 0)
(0.991798 -0.0617473 0)
(0.986506 -0.0615403 0)
(0.981273 -0.0608183 0)
(0.976136 -0.0599581 0)
(0.970971 -0.0591385 0)
(0.965239 -0.0580537 0)
(0.95853 -0.0562644 0)
(0.952386 -0.053808 0)
(0.949589 -0.0512296 0)
(0.949995 -0.0487283 0)
(0.950752 -0.0461722 0)
(0.950589 -0.0437438 0)
(0.949896 -0.0415862 0)
(0.94905 -0.0397046 0)
(1.01252 -0.00256539 0)
(1.01312 -0.00877574 0)
(1.01418 -0.0138941 0)
(1.01544 -0.0195298 0)
(1.01682 -0.0249062 0)
(1.01808 -0.0304141 0)
(1.01904 -0.0358998 0)
(1.0195 -0.0413957 0)
(1.01926 -0.0468121 0)
(1.01816 -0.0520651 0)
(1.01608 -0.0570275 0)
(1.013 -0.0615466 0)
(1.00895 -0.0654599 0)
(1.00407 -0.0686223 0)
(0.998549 -0.0709182 0)
(0.992595 -0.0722355 0)
(0.98638 -0.072562 0)
(0.980075 -0.0719625 0)
(0.974006 -0.0703366 0)
(0.968792 -0.067636 0)
(0.965367 -0.0643302 0)
(0.964297 -0.0612542 0)
(0.963947 -0.058874 0)
(0.960868 -0.0567723 0)
(0.95459 -0.0546651 0)
(0.948406 -0.0528538 0)
(0.944118 -0.0512547 0)
(0.941172 -0.0496957 0)
(0.938993 -0.0481993 0)
(1.01406 -0.00269456 0)
(1.01475 -0.00920306 0)
(1.01594 -0.0145901 0)
(1.01739 -0.020542 0)
(1.01899 -0.0262463 0)
(1.02049 -0.0321375 0)
(1.02173 -0.0380648 0)
(1.02248 -0.0440917 0)
(1.02252 -0.0501523 0)
(1.02167 -0.0561879 0)
(1.01978 -0.0620798 0)
(1.01678 -0.067666 0)
(1.01265 -0.0727465 0)
(1.00747 -0.0771079 0)
(1.00139 -0.0805817 0)
(0.994551 -0.0830611 0)
(0.987126 -0.0845205 0)
(0.979373 -0.085074 0)
(0.971604 -0.0850831 0)
(0.963963 -0.0849677 0)
(0.956053 -0.0846599 0)
(0.947078 -0.0834897 0)
(0.937983 -0.0809719 0)
(0.932273 -0.0777636 0)
(0.93123 -0.0746407 0)
(0.93139 -0.0714279 0)
(0.930342 -0.0682115 0)
(0.92867 -0.065322 0)
(0.926974 -0.0627778 0)
(1.01552 -0.00279464 0)
(1.0163 -0.00953231 0)
(1.01761 -0.0151341 0)
(1.01924 -0.0213458 0)
(1.02106 -0.0273257 0)
(1.02283 -0.0335466 0)
(1.02436 -0.0398609 0)
(1.02544 -0.0463602 0)
(1.02585 -0.0530029 0)
(1.02538 -0.0597609 0)
(1.02384 -0.0665382 0)
(1.02108 -0.0731877 0)
(1.01702 -0.0795079 0)
(1.01165 -0.0852603 0)
(1.00503 -0.0902244 0)
(0.997353 -0.0941949 0)
(0.988906 -0.0969717 0)
(0.980051 -0.0984119 0)
(0.971271 -0.0983769 0)
(0.963202 -0.0967072 0)
(0.956605 -0.0936283 0)
(0.952414 -0.0900948 0)
(0.950158 -0.0872659 0)
(0.946166 -0.0850788 0)
(0.938052 -0.0826471 0)
(0.929182 -0.0802604 0)
(0.922932 -0.078192 0)
(0.918666 -0.0761046 0)
(0.915396 -0.0740305 0)
(1.01687 -0.00286999 0)
(1.01773 -0.00977814 0)
(1.01918 -0.0155476 0)
(1.02098 -0.0219684 0)
(1.02302 -0.0281752 0)
(1.02505 -0.0346729 0)
(1.0269 -0.0413157 0)
(1.02834 -0.0482182 0)
(1.02917 -0.0553642 0)
(1.02915 -0.0627645 0)
(1.02805 -0.0703651 0)
(1.02567 -0.0780564 0)
(1.02184 -0.0856549 0)
(1.0165 -0.0928981 0)
(1.00967 -0.099476 0)
(1.00152 -0.105066 0)
(0.992279 -0.109409 0)
(0.982237 -0.112422 0)
(0.971782 -0.114307 0)
(0.961215 -0.115644 0)
(0.950389 -0.116768 0)
(0.938553 -0.117005 0)
(0.925789 -0.115228 0)
(0.915536 -0.111594 0)
(0.9113 -0.107661 0)
(0.910269 -0.103768 0)
(0.90801 -0.0995976 0)
(0.904815 -0.0957316 0)
(0.901813 -0.0923304 0)
(1.01811 -0.00292516 0)
(1.01905 -0.00995567 0)
(1.02062 -0.0158532 0)
(1.0226 -0.0224394 0)
(1.02485 -0.0288289 0)
(1.02715 -0.0355539 0)
(1.02931 -0.0424677 0)
(1.03113 -0.0497037 0)
(1.03239 -0.0572715 0)
(1.03286 -0.0652255 0)
(1.0323 -0.07356 0)
(1.03045 -0.0822102 0)
(1.02712 -0.0910188 0)
(1.02215 -0.0997221 0)
(1.01546 -0.107981 0)
(1.00706 -0.115442 0)
(0.997099 -0.121796 0)
(0.985969 -0.126788 0)
(0.974263 -0.130076 0)
(0.962703 -0.131123 0)
(0.952102 -0.129591 0)
(0.943526 -0.1262 0)
(0.937796 -0.122799 0)
(0.932295 -0.120547 0)
(0.922395 -0.118227 0)
(0.909779 -0.115253 0)
(0.900137 -0.112565 0)
(0.893753 -0.109852 0)
(0.88876 -0.106955 0)
(1.01925 -0.00296438 0)
(1.02026 -0.0100788 0)
(1.02195 -0.0160719 0)
(1.0241 -0.0227866 0)
(1.02656 -0.0293202 0)
(1.02911 -0.0362284 0)
(1.03158 -0.0433606 0)
(1.03376 -0.0508644 0)
(1.03547 -0.0587726 0)
(1.03647 -0.0671791 0)
(1.03652 -0.0761252 0)
(1.03537 -0.0855997 0)
(1.03274 -0.0954997 0)
(1.02836 -0.105612 0)
(1.02202 -0.115622 0)
(1.01362 -0.125139 0)
(1.00331 -0.13372 0)
(0.991446 -0.140944 0)
(0.978492 -0.146518 0)
(0.964745 -0.15064 0)
(0.950221 -0.154089 0)
(0.934589 -0.156907 0)
(0.917466 -0.15747 0)
(0.901119 -0.154427 0)
(0.891032 -0.149533 0)
(0.887395 -0.144753 0)
(0.88364 -0.139482 0)
(0.878148 -0.134155 0)
(0.873084 -0.129491 0)
(1.02029 -0.00299126 0)
(1.02137 -0.0101596 0)
(1.02318 -0.016222 0)
(1.02548 -0.0230348 0)
(1.02814 -0.02968 0)
(1.03093 -0.0367332 0)
(1.03369 -0.0440373 0)
(1.03622 -0.0517486 0)
(1.03837 -0.0599174 0)
(1.03992 -0.0686708 0)
(1.04065 -0.0780981 0)
(1.04026 -0.0882559 0)
(1.03844 -0.0991201 0)
(1.03483 -0.110549 0)
(1.02913 -0.122264 0)
(1.02116 -0.133844 0)
(1.01094 -0.14479 0)
(0.99868 -0.154623 0)
(0.984723 -0.162845 0)
(0.969635 -0.168726 0)
(0.954373 -0.171245 0)
(0.940274 -0.17001 0)
(0.929024 -0.166706 0)
(0.920294 -0.164368 0)
(0.908523 -0.162898 0)
(0.891345 -0.159889 0)
(0.875881 -0.156324 0)
(0.86579 -0.152874 0)
(0.85805 -0.148813 0)
(1.02124 -0.00300876 0)
(1.02238 -0.0102079 0)
(1.0243 -0.016319 0)
(1.02674 -0.0232052 0)
(1.02959 -0.0299348 0)
(1.03261 -0.037101 0)
(1.03563 -0.0445369 0)
(1.03851 -0.0524022 0)
(1.04108 -0.0607591 0)
(1.04317 -0.0697637 0)
(1.04456 -0.0795532 0)
(1.04497 -0.0902549 0)
(1.04404 -0.101927 0)
(1.04141 -0.114503 0)
(1.03668 -0.127765 0)
(1.02955 -0.14134 0)
(1.01982 -0.154734 0)
(1.00757 -0.167389 0)
(0.993039 -0.178641 0)
(0.976517 -0.187922 0)
(0.958178 -0.195564 0)
(0.937997 -0.202511 0)
(0.915755 -0.207773 0)
(0.892185 -0.208075 0)
(0.872864 -0.203184 0)
(0.863104 -0.197197 0)
(0.856988 -0.190973 0)
(0.848187 -0.183703 0)
(0.839521 -0.177052 0)
(1.02211 -0.0030192 0)
(1.0233 -0.0102318 0)
(1.02533 -0.0163753 0)
(1.0279 -0.0233153 0)
(1.03093 -0.0301071 0)
(1.03415 -0.0373602 0)
(1.03743 -0.0448943 0)
(1.04061 -0.0528687 0)
(1.04358 -0.0613535 0)
(1.04618 -0.070528 0)
(1.04822 -0.0805709 0)
(1.04943 -0.091673 0)
(1.04949 -0.10397 0)
(1.04799 -0.117488 0)
(1.04446 -0.132108 0)
(1.03844 -0.147552 0)
(1.02961 -0.163358 0)
(1.01787 -0.178927 0)
(1.00329 -0.193554 0)
(0.98599 -0.206332 0)
(0.96658 -0.215933 0)
(0.946581 -0.220663 0)
(0.928116 -0.220268 0)
(0.913089 -0.218284 0)
(0.898185 -0.218401 0)
(0.876369 -0.217425 0)
(0.851872 -0.213306 0)
(0.834502 -0.208919 0)
(0.822148 -0.203553 0)
(1.02289 -0.00302441 0)
(1.02414 -0.0102375 0)
(1.02627 -0.0164012 0)
(1.02897 -0.0233792 0)
(1.03215 -0.0302158 0)
(1.03557 -0.0375346 0)
(1.03907 -0.0451395 0)
(1.04254 -0.0531874 0)
(1.04587 -0.0617516 0)
(1.04894 -0.0710272 0)
(1.0516 -0.0812246 0)
(1.05362 -0.0925891 0)
(1.0547 -0.105336 0)
(1.0544 -0.119594 0)
(1.05218 -0.135361 0)
(1.04753 -0.152463 0)
(1.04 -0.170511 0)
(1.02932 -0.188932 0)
(1.0153 -0.207012 0)
(0.997824 -0.223785 0)
(0.976854 -0.238468 0)
(0.95248 -0.251735 0)
(0.92483 -0.264363 0)
(0.893853 -0.273038 0)
(0.86248 -0.272496 0)
(0.840266 -0.265732 0)
(0.828452 -0.258784 0)
(0.815363 -0.250054 0)
(0.800335 -0.240461 0)
(1.02361 -0.00302576 0)
(1.02491 -0.0102301 0)
(1.02712 -0.0164046 0)
(1.02994 -0.0234084 0)
(1.03328 -0.0302759 0)
(1.03686 -0.0376438 0)
(1.04057 -0.0452978 0)
(1.0443 -0.0533915 0)
(1.04795 -0.0619967 0)
(1.05146 -0.0713161 0)
(1.0547 -0.0815838 0)
(1.05751 -0.0930933 0)
(1.05958 -0.106137 0)
(1.06048 -0.120943 0)
(1.05967 -0.137617 0)
(1.0566 -0.156106 0)
(1.05073 -0.17614 0)
(1.04157 -0.19724 0)
(1.02872 -0.218766 0)
(1.0118 -0.239812 0)
(0.990625 -0.258995 0)
(0.966109 -0.274106 0)
(0.94045 -0.282334 0)
(0.916259 -0.284078 0)
(0.89489 -0.286173 0)
(0.868917 -0.290503 0)
(0.833484 -0.289246 0)
(0.802092 -0.283927 0)
(0.781109 -0.27775 0)
(1.02426 -0.00302434 0)
(1.02561 -0.0102133 0)
(1.0279 -0.016392 0)
(1.03082 -0.0234117 0)
(1.0343 -0.0302998 0)
(1.03804 -0.0377039 0)
(1.04194 -0.04539 0)
(1.0459 -0.0535082 0)
(1.04985 -0.0621244 0)
(1.05375 -0.0714428 0)
(1.05753 -0.0817151 0)
(1.06105 -0.0932753 0)
(1.06406 -0.106482 0)
(1.06616 -0.12165 0)
(1.06682 -0.138989 0)
(1.06546 -0.158575 0)
(1.06147 -0.180291 0)
(1.05423 -0.203788 0)
(1.04313 -0.228524 0)
(1.02757 -0.253678 0)
(1.00694 -0.277979 0)
(0.980877 -0.30066 0)
(0.949271 -0.323101 0)
(0.911938 -0.345113 0)
(0.868923 -0.358365 0)
(0.827644 -0.356387 0)
(0.800984 -0.348759 0)
(0.781743 -0.340726 0)
(0.757306 -0.328262 0)
(1.02484 -0.00302099 0)
(1.02624 -0.0101903 0)
(1.02861 -0.0163683 0)
(1.03161 -0.0233966 0)
(1.03523 -0.0302972 0)
(1.03911 -0.0377275 0)
(1.04318 -0.0454325 0)
(1.04734 -0.0535596 0)
(1.05156 -0.0621648 0)
(1.05581 -0.0714494 0)
(1.06008 -0.0816772 0)
(1.06426 -0.0932126 0)
(1.06815 -0.106467 0)
(1.07142 -0.121832 0)
(1.07354 -0.139619 0)
(1.07392 -0.160027 0)
(1.07194 -0.183092 0)
(1.0669 -0.208622 0)
(1.05803 -0.236211 0)
(1.0445 -0.265265 0)
(1.02544 -0.294802 0)
(1.00042 -0.323028 0)
(0.970669 -0.346476 0)
(0.938363 -0.360473 0)
(0.90623 -0.367056 0)
(0.874083 -0.378214 0)
(0.830099 -0.388787 0)
(0.777127 -0.386201 0)
(0.737403 -0.37962 0)
(1.02537 -0.00301634 0)
(1.0268 -0.0101633 0)
(1.02924 -0.0163373 0)
(1.03233 -0.0233685 0)
(1.03607 -0.030276 0)
(1.04007 -0.0377246 0)
(1.0443 -0.0454387 0)
(1.04864 -0.0535635 0)
(1.05309 -0.0621424 0)
(1.05766 -0.0713702 0)
(1.06235 -0.0815173 0)
(1.06713 -0.0929691 0)
(1.07186 -0.106178 0)
(1.07622 -0.121605 0)
(1.07974 -0.139653 0)
(1.08184 -0.160629 0)
(1.08191 -0.184706 0)
(1.07926 -0.211863 0)
(1.07299 -0.241867 0)
(1.06209 -0.274314 0)
(1.04561 -0.308497 0)
(1.02248 -0.343065 0)
(0.991431 -0.377602 0)
(0.951629 -0.414922 0)
(0.901838 -0.452843 0)
(0.84151 -0.473023 0)
(0.785762 -0.469416 0)
(0.749865 -0.463033 0)
(0.714968 -0.452357 0)
(1.02584 -0.00301091 0)
(1.0273 -0.0101343 0)
(1.02981 -0.016302 0)
(1.03297 -0.023332 0)
(1.03682 -0.0302421 0)
(1.04093 -0.0377032 0)
(1.0453 -0.0454192 0)
(1.04981 -0.0535343 0)
(1.05446 -0.0620765 0)
(1.0593 -0.0712324 0)
(1.06438 -0.0812731 0)
(1.0697 -0.0925986 0)
(1.07518 -0.105694 0)
(1.08055 -0.121077 0)
(1.08539 -0.13923 0)
(1.08915 -0.160551 0)
(1.09126 -0.185329 0)
(1.09105 -0.213707 0)
(1.08761 -0.245644 0)
(1.07976 -0.280914 0)
(1.06647 -0.319237 0)
(1.04656 -0.359997 0)
(1.01888 -0.401079 0)
(0.984199 -0.437163 0)
(0.94398 -0.46063 0)
(0.900838 -0.477804 0)
(0.850887 -0.507717 0)
(0.777534 -0.526531 0)
(0.699457 -0.520305 0)
(1.02625 -0.00300505 0)
(1.02775 -0.0101045 0)
(1.03031 -0.0162645 0)
(1.03355 -0.0232904 0)
(1.03749 -0.0302002 0)
(1.0417 -0.0376691 0)
(1.04619 -0.0453823 0)
(1.05084 -0.0534829 0)
(1.05567 -0.061982 0)
(1.06075 -0.0710568 0)
(1.06617 -0.080975 0)
(1.07198 -0.0921457 0)
(1.07813 -0.105078 0)
(1.08442 -0.120337 0)
(1.09048 -0.138466 0)
(1.09583 -0.159946 0)
(1.0999 -0.185162 0)
(1.10208 -0.214383 0)
(1.10152 -0.247763 0)
(1.09702 -0.28528 0)
(1.08741 -0.326887 0)
(1.07185 -0.372507 0)
(1.04836 -0.421131 0)
(1.0131 -0.472954 0)
(0.964674 -0.534584 0)
(0.9001 -0.601683 0)
(0.812602 -0.634705 0)
(0.729195 -0.629967 0)
(0.672412 -0.626487 0)
(1.02662 -0.00299904 0)
(1.02815 -0.0100749 0)
(1.03076 -0.0162266 0)
(1.03406 -0.0232464 0)
(1.03809 -0.0301538 0)
(1.04238 -0.0376273 0)
(1.04699 -0.0453345 0)
(1.05176 -0.0534177 0)
(1.05675 -0.0618702 0)
(1.06204 -0.0708599 0)
(1.06775 -0.0806474 0)
(1.07398 -0.0916464 0)
(1.08073 -0.104384 0)
(1.08785 -0.11946 0)
(1.09504 -0.13747 0)
(1.10184 -0.158961 0)
(1.10777 -0.184401 0)
(1.11223 -0.214148 0)
(1.11447 -0.248503 0)
(1.11346 -0.287683 0)
(1.10787 -0.331802 0)
(1.09689 -0.381305 0)
(1.07924 -0.436844 0)
(1.05178 -0.496549 0)
(1.01335 -0.551955 0)
(0.964385 -0.590638 0)
(0.90705 -0.632237 0)
(0.824865 -0.704336 0)
(0.693214 -0.729352 0)
(1.02695 -0.00299307 0)
(1.0285 -0.0100463 0)
(1.03116 -0.0161892 0)
(1.03451 -0.0232019 0)
(1.03862 -0.0301057 0)
(1.04299 -0.0375811 0)
(1.04769 -0.0452805 0)
(1.05257 -0.0533448 0)
(1.0577 -0.06175 0)
(1.06317 -0.070654 0)
(1.06913 -0.0803085 0)
(1.07573 -0.0911279 0)
(1.08301 -0.103652 0)
(1.09088 -0.118505 0)
(1.09908 -0.136327 0)
(1.10721 -0.157718 0)
(1.11484 -0.18321 0)
(1.12144 -0.213229 0)
(1.12632 -0.248156 0)
(1.12868 -0.288422 0)
(1.12734 -0.334399 0)
(1.12124 -0.386579 0)
(1.11015 -0.446342 0)
(1.09105 -0.514353 0)
(1.0541 -0.59082 0)
(0.99853 -0.691641 0)
(0.92435 -0.821064 0)
(0.787428 -0.890879 0)
(0.619272 -0.88055 0)
(1.02724 -0.00298728 0)
(1.02882 -0.0100193 0)
(1.03151 -0.0161533 0)
(1.03491 -0.0231583 0)
(1.03908 -0.0300576 0)
(1.04353 -0.0375333 0)
(1.04832 -0.0452238 0)
(1.05329 -0.0532689 0)
(1.05853 -0.0616277 0)
(1.06416 -0.0704484 0)
(1.07034 -0.079972 0)
(1.07725 -0.0906111 0)
(1.085 -0.102912 0)
(1.09353 -0.117521 0)
(1.10262 -0.135111 0)
(1.11195 -0.156322 0)
(1.12113 -0.181736 0)
(1.12971 -0.211835 0)
(1.13703 -0.247035 0)
(1.14247 -0.287869 0)
(1.14534 -0.335033 0)
(1.14444 -0.389067 0)
(1.13927 -0.451403 0)
(1.12953 -0.526205 0)
(1.10976 -0.614059 0)
(1.07434 -0.698278 0)
(1.01889 -0.761028 0)
(0.944775 -0.870666 0)
(0.778315 -1.04668 0)
(1.02749 -0.00298177 0)
(1.02909 -0.00999401 0)
(1.03182 -0.0161195 0)
(1.03527 -0.0231166 0)
(1.0395 -0.0300111 0)
(1.044 -0.0374858 0)
(1.04887 -0.0451671 0)
(1.05392 -0.0531934 0)
(1.05927 -0.0615077 0)
(1.06502 -0.0702491 0)
(1.07139 -0.0796472 0)
(1.07858 -0.0901105 0)
(1.08673 -0.10219 0)
(1.09583 -0.116545 0)
(1.10572 -0.133875 0)
(1.11611 -0.154854 0)
(1.12667 -0.180095 0)
(1.13704 -0.210123 0)
(1.14661 -0.245381 0)
(1.15481 -0.286393 0)
(1.16149 -0.334072 0)
(1.16587 -0.389298 0)
(1.16669 -0.453007 0)
(1.166 -0.529702 0)
(1.16223 -0.623839 0)
(1.13387 -0.729024 0)
(1.07988 -0.883942 0)
(1.01885 -1.17028 0)
(0.732211 -1.30421 0)
(0.998697 -0.00218953 0)
(0.998887 -0.0020483 0)
(0.998977 -0.00190545 0)
(0.998974 -0.00175993 0)
(0.998883 -0.0016108 0)
(0.998698 -0.001457 0)
(0.998404 -0.00129771 0)
(0.99798 -0.0011325 0)
(0.997398 -0.000961571 0)
(0.996628 -0.000786113 0)
(0.99564 -0.00060863 0)
(0.994414 -0.000433309 0)
(0.992944 -0.000266224 0)
(0.991249 -0.000115284 0)
(0.98938 1.02212e-05 0)
(0.987422 0.000100537 0)
(0.985498 0.000146801 0)
(0.983756 0.000142689 0)
(0.982354 8.60396e-05 0)
(0.997355 -0.0103613 0)
(0.997157 -0.010308 0)
(0.997026 -0.010257 0)
(0.996951 -0.0102113 0)
(0.996931 -0.0101717 0)
(0.996975 -0.0101393 0)
(0.997102 -0.0101147 0)
(0.997347 -0.010098 0)
(0.997756 -0.0100888 0)
(0.998385 -0.0100851 0)
(0.999301 -0.0100833 0)
(1.00057 -0.010077 0)
(1.00223 -0.0100566 0)
(1.00432 -0.010009 0)
(1.00681 -0.00991749 0)
(1.0096 -0.00976311 0)
(1.01254 -0.00952657 0)
(1.0154 -0.00919137 0)
(1.01791 -0.00874744 0)
(0.995179 -0.00986559 0)
(0.99539 -0.00954587 0)
(0.995544 -0.00921654 0)
(0.995644 -0.00887702 0)
(0.995687 -0.0085274 0)
(0.995661 -0.00816678 0)
(0.995546 -0.00779369 0)
(0.995309 -0.00740631 0)
(0.994905 -0.00700249 0)
(0.994276 -0.00658007 0)
(0.993351 -0.00613737 0)
(0.992053 -0.00567405 0)
(0.990307 -0.00519211 0)
(0.988061 -0.00469693 0)
(0.985299 -0.00419817 0)
(0.98207 -0.00370987 0)
(0.978507 -0.00324969 0)
(0.974835 -0.00283682 0)
(0.971361 -0.00248887 0)
(0.990363 -0.0118412 0)
(0.989953 -0.0114666 0)
(0.989604 -0.0110797 0)
(0.989297 -0.0106822 0)
(0.989023 -0.0102742 0)
(0.988781 -0.00985628 0)
(0.988579 -0.00943037 0)
(0.98844 -0.00899927 0)
(0.988401 -0.008567 0)
(0.988515 -0.00813876 0)
(0.988856 -0.0077207 0)
(0.989513 -0.00731929 0)
(0.990581 -0.00694026 0)
(0.992148 -0.00658716 0)
(0.994269 -0.00625981 0)
(0.99694 -0.0059529 0)
(1.00007 -0.00565546 0)
(1.00347 -0.00535149 0)
(1.00684 -0.00502208 0)
(0.984394 -0.0140933 0)
(0.984353 -0.0134286 0)
(0.984257 -0.0127589 0)
(0.984119 -0.0120849 0)
(0.983947 -0.0114088 0)
(0.983745 -0.0107318 0)
(0.983511 -0.010055 0)
(0.983236 -0.00937925 0)
(0.982903 -0.00870489 0)
(0.982479 -0.0080313 0)
(0.981915 -0.00735681 0)
(0.981141 -0.0066787 0)
(0.98007 -0.00599357 0)
(0.978604 -0.00529811 0)
(0.976656 -0.00459026 0)
(0.974174 -0.0038705 0)
(0.971181 -0.0031428 0)
(0.967799 -0.00241472 0)
(0.96427 -0.00169641 0)
(0.976981 -0.016441 0)
(0.97641 -0.0157281 0)
(0.975908 -0.0149954 0)
(0.975462 -0.0142463 0)
(0.975062 -0.0134804 0)
(0.974708 -0.0126981 0)
(0.974407 -0.0119 0)
(0.974173 -0.0110872 0)
(0.974029 -0.010261 0)
(0.974012 -0.00942349 0)
(0.974169 -0.00857736 0)
(0.974566 -0.00772613 0)
(0.97528 -0.006874 0)
(0.976395 -0.00602537 0)
(0.977985 -0.00518416 0)
(0.980086 -0.00435286 0)
(0.982668 -0.00353182 0)
(0.985607 -0.00271897 0)
(0.988666 -0.00191037 0)
(0.967902 -0.0222773 0)
(0.967533 -0.0211953 0)
(0.96713 -0.0200959 0)
(0.966709 -0.0189811 0)
(0.966283 -0.0178546 0)
(0.965859 -0.0167195 0)
(0.96544 -0.0155784 0)
(0.965023 -0.0144344 0)
(0.964602 -0.0132903 0)
(0.964156 -0.0121488 0)
(0.963653 -0.0110117 0)
(0.963038 -0.00988039 0)
(0.962241 -0.00875517 0)
(0.961171 -0.00763576 0)
(0.959736 -0.00652142 0)
(0.95786 -0.00541138 0)
(0.955527 -0.00430509 0)
(0.952809 -0.00320214 0)
(0.949898 -0.00210142 0)
(0.958755 -0.0279165 0)
(0.957823 -0.0269159 0)
(0.956983 -0.0258859 0)
(0.956222 -0.0248304 0)
(0.955535 -0.023749 0)
(0.954924 -0.0226419 0)
(0.954396 -0.0215095 0)
(0.953965 -0.0203523 0)
(0.953648 -0.0191708 0)
(0.953472 -0.0179655 0)
(0.953471 -0.0167365 0)
(0.953692 -0.0154841 0)
(0.95419 -0.014208 0)
(0.955029 -0.0129069 0)
(0.956268 -0.0115787 0)
(0.957939 -0.0102194 0)
(0.960016 -0.00882394 0)
(0.962382 -0.00738682 0)
(0.964814 -0.00590453 0)
(0.948212 -0.0380664 0)
(0.947388 -0.0365182 0)
(0.946554 -0.0349369 0)
(0.945728 -0.0333246 0)
(0.944926 -0.0316845 0)
(0.944156 -0.0300186 0)
(0.943423 -0.0283284 0)
(0.942728 -0.0266152 0)
(0.942063 -0.0248803 0)
(0.941411 -0.0231242 0)
(0.94074 -0.0213476 0)
(0.94 -0.0195505 0)
(0.939117 -0.0177337 0)
(0.938 -0.0158987 0)
(0.936546 -0.0140489 0)
(0.934669 -0.0121906 0)
(0.932334 -0.0103333 0)
(0.929609 -0.0084878 0)
(0.926696 -0.0066632 0)
(0.9373 -0.0467859 0)
(0.935848 -0.0453945 0)
(0.934501 -0.0439526 0)
(0.933244 -0.0424653 0)
(0.932072 -0.0409319 0)
(0.930985 -0.0393526 0)
(0.929985 -0.0377277 0)
(0.929081 -0.0360572 0)
(0.928283 -0.0343411 0)
(0.927609 -0.0325793 0)
(0.927083 -0.0307717 0)
(0.926744 -0.0289181 0)
(0.926645 -0.027018 0)
(0.926852 -0.0250702 0)
(0.927438 -0.0230714 0)
(0.928461 -0.0210152 0)
(0.929923 -0.0188913 0)
(0.93173 -0.0166866 0)
(0.933649 -0.0143904 0)
(0.9254 -0.060538 0)
(0.923902 -0.0584043 0)
(0.92241 -0.0562087 0)
(0.920946 -0.0539543 0)
(0.919521 -0.0516439 0)
(0.918146 -0.0492783 0)
(0.916824 -0.0468576 0)
(0.915555 -0.0443825 0)
(0.914335 -0.0418535 0)
(0.913149 -0.0392718 0)
(0.911974 -0.0366388 0)
(0.910767 -0.0339572 0)
(0.909464 -0.0312307 0)
(0.907976 -0.0284655 0)
(0.906194 -0.0256717 0)
(0.90401 -0.022865 0)
(0.901362 -0.0200686 0)
(0.898299 -0.0173114 0)
(0.895046 -0.0146216 0)
(0.912798 -0.0720465 0)
(0.910527 -0.0700653 0)
(0.908381 -0.0679864 0)
(0.906344 -0.0658196 0)
(0.904407 -0.0635695 0)
(0.902568 -0.0612422 0)
(0.900829 -0.0588443 0)
(0.899196 -0.0563829 0)
(0.897679 -0.0538646 0)
(0.896294 -0.0512957 0)
(0.895063 -0.0486818 0)
(0.894024 -0.0460274 0)
(0.893231 -0.0433351 0)
(0.892761 -0.0406048 0)
(0.892712 -0.037831 0)
(0.89318 -0.0350003 0)
(0.894218 -0.0320875 0)
(0.895761 -0.0290557 0)
(0.897552 -0.0258638 0)
(0.899108 -0.0892929 0)
(0.896573 -0.0863802 0)
(0.894079 -0.0833666 0)
(0.891653 -0.0802592 0)
(0.889313 -0.0770611 0)
(0.887073 -0.0737724 0)
(0.884939 -0.0703931 0)
(0.882914 -0.0669228 0)
(0.880996 -0.0633618 0)
(0.879175 -0.0597108 0)
(0.877427 -0.0559712 0)
(0.875713 -0.0521454 0)
(0.87397 -0.048238 0)
(0.872099 -0.0442564 0)
(0.869964 -0.0402148 0)
(0.867402 -0.0361377 0)
(0.864276 -0.0320662 0)
(0.860563 -0.0280606 0)
(0.856487 -0.0241924 0)
(0.884744 -0.104132 0)
(0.881229 -0.101256 0)
(0.877898 -0.0981823 0)
(0.874733 -0.0949377 0)
(0.871727 -0.0915372 0)
(0.868879 -0.0880012 0)
(0.866189 -0.0843503 0)
(0.863663 -0.0806061 0)
(0.861308 -0.0767898 0)
(0.859136 -0.0729223 0)
(0.857164 -0.0690236 0)
(0.855424 -0.0651121 0)
(0.853966 -0.0612043 0)
(0.852873 -0.0573125 0)
(0.852269 -0.0534418 0)
(0.852313 -0.0495839 0)
(0.853158 -0.0457071 0)
(0.85484 -0.0417475 0)
(0.857121 -0.0376096 0)
(0.868645 -0.125258 0)
(0.864509 -0.121147 0)
(0.860498 -0.116867 0)
(0.85665 -0.11242 0)
(0.852995 -0.107818 0)
(0.849556 -0.103064 0)
(0.846348 -0.0981627 0)
(0.843379 -0.0931211 0)
(0.840649 -0.0879464 0)
(0.838153 -0.0826469 0)
(0.835872 -0.0772308 0)
(0.833772 -0.0717064 0)
(0.831789 -0.0660829 0)
(0.829819 -0.0603709 0)
(0.827699 -0.0545868 0)
(0.825193 -0.048759 0)
(0.822021 -0.0429427 0)
(0.817966 -0.0372341 0)
(0.813106 -0.0317776 0)
(0.851683 -0.144652 0)
(0.846173 -0.140324 0)
(0.840967 -0.135574 0)
(0.836065 -0.130485 0)
(0.831477 -0.125088 0)
(0.827205 -0.119436 0)
(0.823264 -0.113577 0)
(0.819663 -0.107561 0)
(0.816412 -0.101442 0)
(0.813518 -0.0952718 0)
(0.81099 -0.0891055 0)
(0.808845 -0.082998 0)
(0.807116 -0.0770041 0)
(0.805869 -0.0711758 0)
(0.805226 -0.0655577 0)
(0.805391 -0.0601801 0)
(0.806643 -0.0550371 0)
(0.80923 -0.0500645 0)
(0.813115 -0.0451054 0)
(0.832232 -0.171006 0)
(0.825422 -0.16492 0)
(0.818912 -0.1585 0)
(0.812779 -0.151715 0)
(0.807064 -0.144597 0)
(0.801834 -0.137176 0)
(0.797116 -0.129484 0)
(0.792939 -0.121566 0)
(0.789317 -0.113468 0)
(0.786255 -0.105238 0)
(0.783742 -0.0969192 0)
(0.781748 -0.0885525 0)
(0.780215 -0.080171 0)
(0.779036 -0.0718012 0)
(0.77803 -0.0634653 0)
(0.776898 -0.0551856 0)
(0.775189 -0.0470152 0)
(0.772356 -0.0390603 0)
(0.767974 -0.0315314 0)
(0.811612 -0.197285 0)
(0.802571 -0.190634 0)
(0.794102 -0.183074 0)
(0.786195 -0.1748 0)
(0.778966 -0.165912 0)
(0.772428 -0.156495 0)
(0.766649 -0.14667 0)
(0.761658 -0.136539 0)
(0.757486 -0.12622 0)
(0.75414 -0.115832 0)
(0.751618 -0.105501 0)
(0.749911 -0.0953574 0)
(0.749006 -0.0855377 0)
(0.748912 -0.0761821 0)
(0.749688 -0.0674276 0)
(0.751498 -0.0594106 0)
(0.754685 -0.0522128 0)
(0.759718 -0.0458571 0)
(0.7671 -0.0402167 0)
(0.787914 -0.231861 0)
(0.776426 -0.22274 0)
(0.765425 -0.212778 0)
(0.755289 -0.201993 0)
(0.746014 -0.19038 0)
(0.73779 -0.178088 0)
(0.730681 -0.165209 0)
(0.724771 -0.151891 0)
(0.720095 -0.138283 0)
(0.716688 -0.124538 0)
(0.714543 -0.110806 0)
(0.713632 -0.0972273 0)
(0.713887 -0.0839216 0)
(0.715192 -0.0709835 0)
(0.717344 -0.0584844 0)
(0.720005 -0.046439 0)
(0.722554 -0.0349072 0)
(0.724175 -0.0239601 0)
(0.723487 -0.0137654 0)
(0.763411 -0.26882 0)
(0.747743 -0.258576 0)
(0.733397 -0.246659 0)
(0.720002 -0.233089 0)
(0.708022 -0.218285 0)
(0.697504 -0.202353 0)
(0.688625 -0.185555 0)
(0.681462 -0.16812 0)
(0.676106 -0.150292 0)
(0.672569 -0.132323 0)
(0.670857 -0.114476 0)
(0.670928 -0.0970175 0)
(0.672714 -0.0802318 0)
(0.67613 -0.0644199 0)
(0.681107 -0.0498824 0)
(0.687643 -0.0370059 0)
(0.696091 -0.0260397 0)
(0.706786 -0.0172603 0)
(0.721098 -0.0109005 0)
(0.735001 -0.315934 0)
(0.715416 -0.302843 0)
(0.696239 -0.28725 0)
(0.678903 -0.269987 0)
(0.66332 -0.250803 0)
(0.649875 -0.230123 0)
(0.638711 -0.208236 0)
(0.630022 -0.185453 0)
(0.623838 -0.162128 0)
(0.620252 -0.1386 0)
(0.619244 -0.115206 0)
(0.620789 -0.0922826 0)
(0.624805 -0.0701485 0)
(0.631155 -0.0490814 0)
(0.639605 -0.0293578 0)
(0.649845 -0.0110004 0)
(0.660845 0.00578103 0)
(0.672011 0.0210161 0)
(0.680587 0.0349127 0)
(0.707971 -0.369127 0)
(0.680187 -0.353361 0)
(0.655288 -0.3349 0)
(0.632357 -0.312901 0)
(0.612165 -0.288368 0)
(0.594964 -0.261764 0)
(0.581051 -0.233471 0)
(0.570427 -0.204057 0)
(0.563308 -0.173942 0)
(0.559634 -0.143571 0)
(0.55945 -0.113388 0)
(0.56271 -0.0838325 0)
(0.569348 -0.0553734 0)
(0.579244 -0.0285574 0)
(0.592275 -0.00387171 0)
(0.608038 0.0177054 0)
(0.627341 0.0357427 0)
(0.649265 0.0491913 0)
(0.676577 0.0565598 0)
(0.674891 -0.433978 0)
(0.64057 -0.415445 0)
(0.607733 -0.391205 0)
(0.578131 -0.363018 0)
(0.552506 -0.331658 0)
(0.531164 -0.297384 0)
(0.51403 -0.261338 0)