/*--------------------------------*- C++ -*----------------------------------*\
  =========                 |
  \\      /  F ield         | OpenFOAM: The Open Source CFD Toolbox
   \\    /   O peration     | Website:  https://openfoam.org
    \\  /    A nd           | Version:  10
     \\/     M anipulation  |
\*---------------------------------------------------------------------------*/
FoamFile
{
    format      ascii;
    class       volVectorField;
    location    "0";
    object      U;
}
// * * * * * * * * * * * * * * * * * * * * * * * * * * * * * * * * * * * * * //

dimensions      [0 1 -1 0 0 0 0];

internalField   nonuniform List<vector> 
18483
(
(1 -0.000262725 0)
(1 -0.000924535 0)
(1 -0.00143356 0)
(1 -0.00194357 0)
(1 -0.0023797 0)
(1.00001 -0.0027521 0)
(1.00001 -0.00304651 0)
(1.00001 -0.0032573 0)
(1.00002 -0.00338286 0)
(1.00002 -0.00342635 0)
(1.00004 -0.00339838 0)
(1.00006 -0.00331913 0)
(1.00009 -0.00321176 0)
(1.00014 -0.00312695 0)
(1.0002 -0.00311855 0)
(1.00027 -0.00320613 0)
(1.00028 -0.0033418 0)
(0.999878 -0.00343243 0)
(0.998258 -0.00343112 0)
(0.994603 -0.00334254 0)
(0.989789 -0.00328087 0)
(0.986752 -0.00332671 0)
(0.987291 -0.00334715 0)
(0.99011 -0.00322464 0)
(0.993121 -0.00298957 0)
(0.995386 -0.00271796 0)
(0.996861 -0.00245786 0)
(0.997762 -0.00222993 0)
(0.998295 -0.00203867 0)
(1.00079 -0.000770269 0)
(1.00079 -0.00269511 0)
(1.00081 -0.00417884 0)
(1.0008 -0.00567541 0)
(1.00078 -0.00695462 0)
(1.00071 -0.00805101 0)
(1.00061 -0.00891683 0)
(1.00046 -0.00953255 0)
(1.00028 -0.00988736 0)
(1.00006 -0.00998732 0)
(0.99982 -0.00985202 0)
(0.999578 -0.00952758 0)
(0.999365 -0.00905906 0)
(0.999197 -0.00837588 0)
(0.999071 -0.00737925 0)
(0.998924 -0.00603477 0)
(0.998733 -0.00442949 0)
(0.998834 -0.00278604 0)
(1.00027 -0.00131827 0)
(1.00431 -0.000283371 0)
(1.0101 0.000340251 0)
(1.0137 0.000791125 0)
(1.01242 0.00106389 0)
(1.00808 0.00113038 0)
(1.00379 0.00108766 0)
(1.0008 0.00104402 0)
(0.999008 0.00104176 0)
(0.998007 0.00108469 0)
(0.99747 0.00116122 0)
(1.00229 -0.00123705 0)
(1.0023 -0.00430697 0)
(1.00236 -0.00669241 0)
(1.00235 -0.0091306 0)
(1.00229 -0.0112366 0)
(1.00212 -0.0130802 0)
(1.00182 -0.0145754 0)
(1.0014 -0.0156898 0)
(1.00085 -0.0164005 0)
(1.00021 -0.0167149 0)
(0.999497 -0.016658 0)
(0.998762 -0.0162635 0)
(0.998064 -0.0156001 0)
(0.997412 -0.0147566 0)
(0.996727 -0.0139375 0)
(0.995938 -0.0134406 0)
(0.995023 -0.0133103 0)
(0.993815 -0.0133141 0)
(0.991686 -0.0131254 0)
(0.987909 -0.0123753 0)
(0.983269 -0.0108626 0)
(0.980729 -0.00896391 0)
(0.982275 -0.00716986 0)
(0.986103 -0.00556284 0)
(0.989491 -0.00417087 0)
(0.991588 -0.00302424 0)
(0.992691 -0.00209351 0)
(0.993216 -0.00133744 0)
(0.993435 -0.000719407 0)
(1.00413 -0.00167094 0)
(1.00417 -0.00579855 0)
(1.00429 -0.00904234 0)
(1.00432 -0.0124065 0)
(1.00424 -0.0153608 0)
(1.00397 -0.0180182 0)
(1.00349 -0.0202485 0)
(1.00277 -0.0220026 0)
(1.00183 -0.0232279 0)
(1.00072 -0.0239074 0)
(0.999502 -0.0240496 0)
(0.99824 -0.0236849 0)
(0.996994 -0.0229084 0)
(0.995811 -0.0218617 0)
(0.994729 -0.0205978 0)
(0.993815 -0.0189249 0)
(0.993094 -0.0166693 0)
(0.992584 -0.0140524 0)
(0.99269 -0.0115049 0)
(0.994323 -0.009431 0)
(0.997517 -0.00814944 0)
(0.999757 -0.00746175 0)
(0.99851 -0.00684612 0)
(0.994825 -0.00620521 0)
(0.991367 -0.0055966 0)
(0.989126 -0.00498575 0)
(0.987833 -0.00437689 0)
(0.987083 -0.00378712 0)
(0.986625 -0.00322964 0)
(1.00612 -0.00207047 0)
(1.00622 -0.00717377 0)
(1.00642 -0.0112345 0)
(1.0065 -0.0155057 0)
(1.00645 -0.0193293 0)
(1.00612 -0.0228628 0)
(1.00548 -0.02593 0)
(1.00448 -0.0284612 0)
(1.00314 -0.0303644 0)
(1.00149 -0.0315931 0)
(0.999617 -0.0321452 0)
(0.997585 -0.0320665 0)
(0.995483 -0.031442 0)
(0.993412 -0.0303632 0)
(0.99145 -0.0289291 0)
(0.989579 -0.0273741 0)
(0.987653 -0.0260591 0)
(0.985493 -0.0250787 0)
(0.98281 -0.0241543 0)
(0.979188 -0.0229016 0)
(0.974879 -0.0210645 0)
(0.971802 -0.0187325 0)
(0.971994 -0.016412 0)
(0.974575 -0.0143615 0)
(0.977054 -0.0124799 0)
(0.978481 -0.010811 0)
(0.979138 -0.00937702 0)
(0.979392 -0.00815544 0)
(0.979454 -0.00712375 0)
(1.00824 -0.00242336 0)
(1.00841 -0.0083921 0)
(1.00872 -0.0132022 0)
(1.00892 -0.0183308 0)
(1.00894 -0.0230151 0)
(1.00862 -0.0274586 0)
(1.00787 -0.031444 0)
(1.00663 -0.034884 0)
(1.00489 -0.0376493 0)
(1.00268 -0.0396652 0)
(1.0001 -0.040903 0)
(0.99727 -0.041382 0)
(0.994358 -0.0411446 0)
(0.991501 -0.0402535 0)
(0.98879 -0.0388135 0)
(0.986265 -0.0368957 0)
(0.983962 -0.0344377 0)
(0.981927 -0.0313654 0)
(0.980433 -0.0279448 0)
(0.98025 -0.0247305 0)
(0.981788 -0.0221413 0)
(0.983375 -0.020337 0)
(0.982365 -0.0189435 0)
(0.978861 -0.0175856 0)
(0.975318 -0.0163695 0)
(0.972968 -0.0152699 0)
(0.97156 -0.0142203 0)
(0.970684 -0.013228 0)
(0.970102 -0.0123 0)
(1.01045 -0.00271677 0)
(1.01072 -0.00940829 0)
(1.01118 -0.0148694 0)
(1.01154 -0.0207696 0)
(1.01172 -0.0262675 0)
(1.01149 -0.0316147 0)
(1.01073 -0.0365603 0)
(1.00934 -0.041001 0)
(1.00729 -0.0447652 0)
(1.00461 -0.047731 0)
(1.00142 -0.0498066 0)
(0.997889 -0.0509496 0)
(0.994191 -0.0511733 0)
(0.990463 -0.0505404 0)
(0.986792 -0.049167 0)
(0.983216 -0.0472726 0)
(0.9797 -0.0452579 0)
(0.976132 -0.0435207 0)
(0.972312 -0.0421034 0)
(0.967922 -0.0406492 0)
(0.962907 -0.0387153 0)
(0.958542 -0.0360441 0)
(0.956972 -0.0329883 0)
(0.958203 -0.0301323 0)
(0.959898 -0.0274764 0)
(0.960713 -0.0250218 0)
(0.960862 -0.0228733 0)
(0.960723 -0.0210209 0)
(0.960482 -0.0194399 0)
(1.01268 -0.00294652 0)
(1.01307 -0.0102066 0)
(1.01371 -0.0162041 0)
(1.0143 -0.0227668 0)
(1.0147 -0.0290002 0)
(1.01465 -0.0352047 0)
(1.01399 -0.0411051 0)
(1.01256 -0.0465856 0)
(1.01031 -0.0514314 0)
(1.00724 -0.0554717 0)
(1.00345 -0.0585603 0)
(0.999085 -0.0606141 0)
(0.994326 -0.0616351 0)
(0.989354 -0.0616924 0)
(0.984338 -0.060894 0)
(0.979441 -0.0593555 0)
(0.97486 -0.0570961 0)
(0.970804 -0.0540071 0)
(0.967476 -0.0501346 0)
(0.96532 -0.0459809 0)
(0.964814 -0.0422413 0)
(0.965081 -0.03941 0)
(0.963657 -0.0373037 0)
(0.959741 -0.0352933 0)
(0.955473 -0.0333636 0)
(0.95252 -0.0316337 0)
(0.95069 -0.0299962 0)
(0.949474 -0.0284499 0)
(0.948612 -0.027013 0)
(1.01487 -0.00311822 0)
(1.0154 -0.0108045 0)
(1.01624 -0.0172256 0)
(1.01709 -0.0243363 0)
(1.01778 -0.0312108 0)
(1.01799 -0.0381988 0)
(1.01752 -0.045013 0)
(1.01617 -0.0515345 0)
(1.01382 -0.0575164 0)
(1.01044 -0.0627497 0)
(1.0061 -0.0670426 0)
(1.00095 -0.0702568 0)
(0.995225 -0.0723198 0)
(0.989189 -0.0732134 0)
(0.983094 -0.0729536 0)
(0.977129 -0.0715941 0)
(0.971403 -0.0693798 0)
(0.965911 -0.0669305 0)
(0.960544 -0.0648082 0)
(0.95504 -0.0629292 0)
(0.949052 -0.0607471 0)
(0.943084 -0.0577304 0)
(0.939098 -0.0539736 0)
(0.938214 -0.0502513 0)
(0.938695 -0.0468322 0)
(0.938651 -0.0435949 0)
(0.938053 -0.0406826 0)
(0.937321 -0.0381336 0)
(0.936612 -0.0359202 0)
(1.01697 -0.00324271 0)
(1.01763 -0.0112372 0)
(1.01869 -0.017983 0)
(1.01985 -0.0255349 0)
(1.02086 -0.0329523 0)
(1.02141 -0.0406357 0)
(1.02123 -0.0482972 0)
(1.02006 -0.0558243 0)
(1.01776 -0.0629486 0)
(1.01424 -0.0694254 0)
(1.00955 -0.0750062 0)
(1.00384 -0.0794765 0)
(0.99734 -0.0826791 0)
(0.990312 -0.0845413 0)
(0.982975 -0.0851009 0)
(0.975511 -0.0845048 0)
(0.968135 -0.0829372 0)
(0.961227 -0.0804363 0)
(0.955265 -0.0768243 0)
(0.950596 -0.0722041 0)
(0.947518 -0.0673305 0)
(0.945757 -0.0631578 0)
(0.943383 -0.0600118 0)
(0.938743 -0.0571957 0)
(0.933222 -0.0543629 0)
(0.929024 -0.0517738 0)
(0.926278 -0.0493634 0)
(0.924333 -0.0470845 0)
(0.922873 -0.0449784 0)
(1.01892 -0.00333143 0)
(1.01973 -0.0115431 0)
(1.02103 -0.0185324 0)
(1.0225 -0.026432 0)
(1.02388 -0.034298 0)
(1.02482 -0.0425819 0)
(1.02501 -0.0510048 0)
(1.02416 -0.059468 0)
(1.02205 -0.0676914 0)
(1.01855 -0.0754031 0)
(1.01366 -0.0823078 0)
(1.00748 -0.0881395 0)
(1.00019 -0.0926932 0)
(0.992038 -0.0958547 0)
(0.983302 -0.0976009 0)
(0.974335 -0.0979502 0)
(0.965532 -0.096927 0)
(0.957215 -0.0947915 0)
(0.949377 -0.0922388 0)
(0.94168 -0.0898533 0)
(0.933799 -0.0873796 0)
(0.925851 -0.0840121 0)
(0.919166 -0.0794536 0)
(0.915516 -0.0745824 0)
(0.914264 -0.0701357 0)
(0.913117 -0.0659356 0)
(0.91148 -0.0620542 0)
(0.909857 -0.0586217 0)
(0.908426 -0.0555992 0)
(1.02073 -0.00339424 0)
(1.02168 -0.0117559 0)
(1.02321 -0.0189245 0)
(1.025 -0.0270934 0)
(1.02678 -0.0353215 0)
(1.02816 -0.0441114 0)
(1.02879 -0.0532007 0)
(1.02834 -0.0625129 0)
(1.02653 -0.0717701 0)
(1.02318 -0.0806913 0)
(1.0182 -0.0889539 0)
(1.01166 -0.0962532 0)
(1.00372 -0.10232 0)
(0.994662 -0.106939 0)
(0.984826 -0.109963 0)
(0.974593 -0.111349 0)
(0.964311 -0.111196 0)
(0.954306 -0.109709 0)
(0.944971 -0.106927 0)
(0.936767 -0.102657 0)
(0.930163 -0.0971837 0)
(0.925314 -0.091696 0)
(0.921058 -0.0872757 0)
(0.915347 -0.083506 0)
(0.908301 -0.0795655 0)
(0.902264 -0.0757644 0)
(0.898112 -0.0722731 0)
(0.895083 -0.0689563 0)
(0.892726 -0.0658885 0)
(1.02238 -0.00343868 0)
(1.02347 -0.0119016 0)
(1.02523 -0.0192 0)
(1.02735 -0.0275736 0)
(1.02953 -0.0360877 0)
(1.03137 -0.0452952 0)
(1.03249 -0.054957 0)
(1.0325 -0.065026 0)
(1.0311 -0.0752386 0)
(1.02802 -0.0853182 0)
(1.02314 -0.0949214 0)
(1.01648 -0.1037 0)
(1.00818 -0.111316 0)
(0.998478 -0.117477 0)
(0.987657 -0.121984 0)
(0.976053 -0.124779 0)
(0.964095 -0.125882 0)
(0.952293 -0.12534 0)
(0.940978 -0.123456 0)
(0.930025 -0.120953 0)
(0.919146 -0.118302 0)
(0.908279 -0.114949 0)
(0.898176 -0.109973 0)
(0.890745 -0.103866 0)
(0.886736 -0.0980354 0)
(0.884021 -0.092639 0)
(0.880993 -0.0874818 0)
(0.878068 -0.0828418 0)
(0.875565 -0.0787204 0)
(1.02389 -0.0034701 0)
(1.02511 -0.0119987 0)
(1.02709 -0.0193889 0)
(1.02952 -0.0279154 0)
(1.03211 -0.03665 0)
(1.03441 -0.0461964 0)
(1.03605 -0.0563415 0)
(1.03659 -0.0670721 0)
(1.03568 -0.0781462 0)
(1.03302 -0.0892997 0)
(1.02842 -0.100178 0)
(1.02184 -0.110406 0)
(1.01334 -0.119614 0)
(1.00309 -0.127473 0)
(0.99131 -0.133728 0)
(0.978417 -0.138212 0)
(0.964954 -0.14082 0)
(0.951453 -0.141529 0)
(0.938272 -0.140403 0)
(0.925806 -0.13736 0)
(0.914699 -0.13231 0)
(0.905513 -0.125997 0)
(0.89794 -0.120092 0)
(0.890228 -0.115246 0)
(0.881182 -0.110304 0)
(0.872464 -0.105063 0)
(0.866017 -0.10016 0)
(0.861332 -0.0954873 0)
(0.857627 -0.0910824 0)
(1.02526 -0.00349219 0)
(1.0266 -0.0120604 0)
(1.0288 -0.0195132 0)
(1.03153 -0.0281509 0)
(1.0345 -0.0370513 0)
(1.03728 -0.0468673 0)
(1.03945 -0.0574129 0)
(1.04055 -0.0687097 0)
(1.04021 -0.0805448 0)
(1.03805 -0.0926763 0)
(1.03385 -0.104757 0)
(1.02746 -0.116406 0)
(1.01889 -0.127237 0)
(1.00827 -0.136879 0)
(0.995835 -0.144989 0)
(0.982001 -0.151299 0)
(0.967278 -0.155656 0)
(0.952146 -0.157978 0)
(0.936953 -0.158275 0)
(0.921885 -0.156947 0)
(0.906949 -0.154778 0)
(0.892131 -0.151925 0)
(0.877719 -0.147347 0)
(0.865296 -0.140474 0)
(0.856864 -0.132915 0)
(0.851497 -0.125945 0)
(0.846512 -0.119161 0)
(0.841617 -0.112796 0)
(0.837464 -0.107103 0)
(1.0265 -0.00350749 0)
(1.02795 -0.012096 0)
(1.03035 -0.019589 0)
(1.03337 -0.0283049 0)
(1.03671 -0.0373255 0)
(1.03995 -0.0473519 0)
(1.04264 -0.0582234 0)
(1.04433 -0.0699979 0)
(1.04458 -0.0824983 0)
(1.04299 -0.0955142 0)
(1.03926 -0.108716 0)
(1.0332 -0.121726 0)
(1.02478 -0.134135 0)
(1.01409 -0.145535 0)
(1.00133 -0.155537 0)
(0.986795 -0.16384 0)
(0.970945 -0.170251 0)
(0.954261 -0.174596 0)
(0.937131 -0.176697 0)
(0.919984 -0.17639 0)
(0.903614 -0.173393 0)
(0.888871 -0.167744 0)
(0.876174 -0.160912 0)
(0.864833 -0.15488 0)
(0.852918 -0.149217 0)
(0.840442 -0.142612 0)
(0.830125 -0.13587 0)
(0.822644 -0.129445 0)
(0.816768 -0.123191 0)
(1.02762 -0.00351778 0)
(1.02918 -0.0121122 0)
(1.03176 -0.0196285 0)
(1.03504 -0.0283965 0)
(1.03874 -0.0375003 0)
(1.04242 -0.0476874 0)
(1.04562 -0.0588201 0)
(1.04789 -0.0709933 0)
(1.04875 -0.0840697 0)
(1.04778 -0.0978736 0)
(1.04461 -0.112097 0)
(1.03904 -0.126367 0)
(1.03097 -0.140264 0)
(1.02043 -0.153374 0)
(1.00751 -0.165304 0)
(0.992481 -0.175724 0)
(0.97577 -0.184365 0)
(0.957852 -0.190953 0)
(0.939064 -0.19521 0)
(0.919706 -0.197082 0)
(0.900069 -0.197118 0)
(0.880234 -0.196024 0)
(0.8604 -0.193241 0)
(0.841623 -0.187131 0)
(0.826431 -0.178286 0)
(0.816122 -0.16935 0)
(0.808005 -0.160696 0)
(0.800044 -0.152006 0)
(0.793109 -0.143996 0)
(1.02864 -0.00352435 0)
(1.03029 -0.012114 0)
(1.03305 -0.0196406 0)
(1.03656 -0.0284407 0)
(1.0406 -0.037598 0)
(1.04469 -0.0479052 0)
(1.04838 -0.059244 0)
(1.05122 -0.0717454 0)
(1.05271 -0.0853132 0)
(1.05238 -0.099806 0)
(1.04986 -0.114941 0)
(1.04488 -0.130361 0)
(1.03727 -0.145655 0)
(1.02699 -0.160413 0)
(1.01412 -0.17424 0)
(0.998887 -0.186771 0)
(0.981694 -0.19769 0)
(0.962903 -0.206699 0)
(0.94275 -0.213507 0)
(0.92154 -0.217835 0)
(0.899927 -0.219226 0)
(0.878899 -0.216971 0)
(0.859405 -0.211332 0)
(0.842038 -0.204772 0)
(0.825565 -0.19894 0)
(0.80805 -0.191931 0)
(0.791472 -0.183299 0)
(0.778839 -0.174673 0)
(0.769172 -0.166025 0)
(1.02957 -0.00352807 0)
(1.0313 -0.0121051 0)
(1.03422 -0.0196325 0)
(1.03795 -0.0284489 0)
(1.0423 -0.0376366 0)
(1.04677 -0.048031 0)
(1.05094 -0.0595289 0)
(1.05433 -0.072296 0)
(1.05644 -0.0862765 0)
(1.05678 -0.101364 0)
(1.05493 -0.117307 0)
(1.05057 -0.133772 0)
(1.04349 -0.150361 0)
(1.03362 -0.166663 0)
(1.02101 -0.182275 0)
(1.00589 -0.196828 0)
(0.988531 -0.210013 0)
(0.969204 -0.22154 0)
(0.948103 -0.231101 0)
(0.925454 -0.23836 0)
(0.90151 -0.243163 0)
(0.876384 -0.246028 0)
(0.850322 -0.247295 0)
(0.824101 -0.245124 0)
(0.799656 -0.237513 0)
(0.780454 -0.226995 0)
(0.766473 -0.216532 0)
(0.75367 -0.205411 0)
(0.741773 -0.194251 0)
(1.03042 -0.00352962 0)
(1.03222 -0.0120883 0)
(1.03528 -0.0196096 0)
(1.03922 -0.0284302 0)
(1.04385 -0.0376306 0)
(1.04868 -0.0480857 0)
(1.05329 -0.059703 0)
(1.05721 -0.0726819 0)
(1.05992 -0.0870063 0)
(1.06092 -0.102605 0)
(1.05974 -0.11926 0)
(1.05604 -0.136664 0)
(1.04956 -0.154427 0)
(1.04023 -0.172136 0)
(1.02807 -0.189392 0)
(1.01325 -0.20585 0)
(0.995975 -0.221221 0)
(0.97648 -0.23524 0)
(0.954912 -0.247651 0)
(0.931365 -0.25815 0)
(0.905979 -0.266181 0)
(0.879309 -0.270653 0)
(0.852552 -0.270287 0)
(0.827016 -0.265924 0)
(0.803299 -0.261201 0)
(0.779241 -0.256126 0)
(0.753781 -0.247337 0)
(0.731702 -0.236482 0)
(0.715029 -0.225263 0)
(1.03118 -0.0035295 0)
(1.03305 -0.0120659 0)
(1.03624 -0.0195763 0)
(1.04036 -0.028392 0)
(1.04526 -0.037592 0)
(1.05041 -0.0480866 0)
(1.05543 -0.0597903 0)
(1.05985 -0.0729362 0)
(1.06314 -0.0875448 0)
(1.06477 -0.103579 0)
(1.06427 -0.120855 0)
(1.06125 -0.13909 0)
(1.05545 -0.157899 0)
(1.04674 -0.176876 0)
(1.03512 -0.195635 0)
(1.02072 -0.213843 0)
(1.00377 -0.231241 0)
(0.984475 -0.247616 0)
(0.962924 -0.262813 0)
(0.939082 -0.276596 0)
(0.912759 -0.288467 0)
(0.883737 -0.298122 0)
(0.852132 -0.30621 0)
(0.818483 -0.31223 0)
(0.783627 -0.311804 0)
(0.751028 -0.303061 0)
(0.7256 -0.291544 0)
(0.704965 -0.279214 0)
(0.684877 -0.26476 0)
(1.03187 -0.00352815 0)
(1.0338 -0.0120397 0)
(1.03711 -0.0195362 0)
(1.04139 -0.0283399 0)
(1.04653 -0.0375301 0)
(1.05198 -0.0480479 0)
(1.05738 -0.0598112 0)
(1.06227 -0.0730872 0)
(1.0661 -0.0879285 0)
(1.06835 -0.104331 0)
(1.06852 -0.122142 0)
(1.06619 -0.141103 0)
(1.06108 -0.160841 0)
(1.05302 -0.180957 0)
(1.04199 -0.201066 0)
(1.02814 -0.220843 0)
(1.01171 -0.240057 0)
(0.992911 -0.258589 0)
(0.971789 -0.27641 0)
(0.948187 -0.293437 0)
(0.921702 -0.309268 0)
(0.892079 -0.32295 0)
(0.860002 -0.332624 0)
(0.826666 -0.336218 0)
(0.793346 -0.335572 0)
(0.760449 -0.335535 0)
(0.724599 -0.332249 0)
(0.687426 -0.321458 0)
(0.657209 -0.308103 0)
(1.03249 -0.0035259 0)
(1.03447 -0.0120114 0)
(1.03789 -0.0194919 0)
(1.04231 -0.0282789 0)
(1.04767 -0.0374525 0)
(1.05339 -0.0479808 0)
(1.05915 -0.0597826 0)
(1.06446 -0.0731582 0)
(1.06881 -0.0881874 0)
(1.07164 -0.104897 0)
(1.07246 -0.123166 0)
(1.07082 -0.14276 0)
(1.0664 -0.16332 0)
(1.05899 -0.184447 0)
(1.0486 -0.205752 0)
(1.03538 -0.226908 0)
(1.01959 -0.247717 0)
(1.0015 -0.268161 0)
(0.98115 -0.288355 0)
(0.958303 -0.30835 0)
(0.932403 -0.327889 0)
(0.902734 -0.346393 0)
(0.868667 -0.363791 0)
(0.830138 -0.381192 0)
(0.787077 -0.396341 0)
(0.739584 -0.399938 0)
(0.694446 -0.391083 0)
(0.658828 -0.379687 0)
(0.626703 -0.364409 0)
(1.03304 -0.00352305 0)
(1.03507 -0.0119819 0)
(1.03858 -0.0194456 0)
(1.04313 -0.0282127 0)
(1.04869 -0.0373653 0)
(1.05465 -0.0478945 0)
(1.06074 -0.0597182 0)
(1.06645 -0.0731684 0)
(1.07127 -0.0883474 0)
(1.07466 -0.105312 0)
(1.0761 -0.123971 0)
(1.07512 -0.144115 0)
(1.07135 -0.165397 0)
(1.06461 -0.187414 0)
(1.05488 -0.209767 0)
(1.04233 -0.232124 0)
(1.02724 -0.254312 0)
(1.00998 -0.2764 0)
(0.990669 -0.298653 0)
(0.968979 -0.32127 0)
(0.944198 -0.344237 0)
(0.915593 -0.367348 0)
(0.882685 -0.389528 0)
(0.8456 -0.407673 0)
(0.804614 -0.418486 0)
(0.761055 -0.42642 0)
(0.714287 -0.437105 0)
(0.65879 -0.437246 0)
(0.602866 -0.423527 0)
(1.03353 -0.0035198 0)
(1.0356 -0.0119524 0)
(1.0392 -0.0193988 0)
(1.04387 -0.0281442 0)
(1.04961 -0.0372732 0)
(1.05578 -0.0477961 0)
(1.06216 -0.0596291 0)
(1.06824 -0.0731337 0)
(1.0735 -0.0884305 0)
(1.07741 -0.105605 0)
(1.07942 -0.124596 0)
(1.07906 -0.145215 0)
(1.07594 -0.167126 0)
(1.06986 -0.189922 0)
(1.06078 -0.213188 0)
(1.04889 -0.236583 0)
(1.03453 -0.259947 0)
(1.01817 -0.283411 0)
(1.00005 -0.307381 0)
(0.979815 -0.332226 0)
(0.956638 -0.35808 0)
(0.929886 -0.385056 0)
(0.898574 -0.413068 0)
(0.86046 -0.442512 0)
(0.814826 -0.476196 0)
(0.760536 -0.509558 0)
(0.69333 -0.522296 0)
(0.625259 -0.515275 0)
(0.570543 -0.504447 0)
(1.03397 -0.00351634 0)
(1.03608 -0.0119235 0)
(1.03975 -0.0193529 0)
(1.04452 -0.0280757 0)
(1.05042 -0.0371798 0)
(1.05678 -0.0476914 0)
(1.06344 -0.0595243 0)
(1.06983 -0.0730674 0)
(1.0755 -0.0884561 0)
(1.07989 -0.105804 0)
(1.08244 -0.125075 0)
(1.08266 -0.146101 0)
(1.08016 -0.168558 0)
(1.0747 -0.192033 0)
(1.06625 -0.216095 0)
(1.055 -0.240381 0)
(1.04138 -0.264734 0)
(1.02593 -0.289333 0)
(1.00904 -0.314684 0)
(0.990435 -0.341329 0)
(0.969215 -0.369569 0)
(0.944676 -0.39982 0)
(0.916407 -0.432862 0)
(0.882879 -0.467834 0)
(0.841858 -0.499207 0)
(0.792426 -0.521905 0)
(0.736633 -0.549959 0)
(0.665796 -0.587668 0)
(0.568785 -0.591168 0)
(1.03435 -0.00351277 0)
(1.0365 -0.0118958 0)
(1.04024 -0.0193086 0)
(1.0451 -0.0280089 0)
(1.05114 -0.0370878 0)
(1.05767 -0.0475847 0)
(1.06457 -0.0594109 0)
(1.07126 -0.0729799 0)
(1.07729 -0.0884393 0)
(1.08211 -0.105929 0)
(1.08516 -0.125435 0)
(1.08593 -0.14681 0)
(1.08401 -0.169739 0)
(1.07914 -0.193804 0)
(1.07128 -0.218556 0)
(1.06064 -0.243603 0)
(1.04772 -0.268782 0)
(1.03318 -0.294303 0)
(1.0175 -0.320733 0)
(1.00052 -0.348751 0)
(0.981506 -0.378885 0)
(0.959603 -0.411613 0)
(0.934828 -0.44801 0)
(0.90573 -0.489372 0)
(0.865947 -0.536879 0)
(0.81454 -0.598691 0)
(0.751923 -0.673187 0)
(0.650441 -0.713104 0)
(0.517627 -0.708211 0)
(1.0347 -0.00350922 0)
(1.03687 -0.0118696 0)
(1.04067 -0.0192667 0)
(1.04561 -0.0279451 0)
(1.05177 -0.0369994 0)
(1.05847 -0.0474795 0)
(1.06557 -0.0592946 0)
(1.07253 -0.0728798 0)
(1.07889 -0.0883929 0)
(1.0841 -0.105998 0)
(1.08761 -0.125701 0)
(1.08888 -0.147373 0)
(1.0875 -0.17071 0)
(1.08318 -0.195288 0)
(1.07586 -0.220636 0)
(1.06579 -0.246332 0)
(1.05352 -0.272195 0)
(1.03985 -0.29846 0)
(1.02531 -0.325725 0)
(1.00988 -0.354725 0)
(0.993085 -0.386235 0)
(0.974134 -0.420884 0)
(0.952683 -0.459676 0)
(0.929185 -0.50572 0)
(0.901336 -0.560503 0)
(0.861757 -0.611545 0)
(0.804576 -0.649433 0)
(0.736959 -0.732009 0)
(0.604718 -0.845853 0)
(1.035 -0.00350575 0)
(1.0372 -0.0118453 0)
(1.04104 -0.0192275 0)
(1.04606 -0.0278851 0)
(1.05233 -0.0369156 0)
(1.05916 -0.047378 0)
(1.06646 -0.0591791 0)
(1.07365 -0.0727732 0)
(1.08031 -0.0883265 0)
(1.08588 -0.106025 0)
(1.08979 -0.125892 0)
(1.09153 -0.147818 0)
(1.09063 -0.171505 0)
(1.08681 -0.196526 0)
(1.08001 -0.222389 0)
(1.07045 -0.248637 0)
(1.05877 -0.275066 0)
(1.04589 -0.301921 0)
(1.03244 -0.32982 0)
(1.01842 -0.3595 0)
(1.00366 -0.391887 0)
(0.987756 -0.427921 0)
(0.969999 -0.468281 0)
(0.951823 -0.515803 0)
(0.932939 -0.574954 0)
(0.898746 -0.644159 0)
(0.848631 -0.746877 0)
(0.792617 -0.922806 0)
(0.580657 -0.992092 0)
(0.998601 -0.00187943 0)
(0.998772 -0.00173453 0)
(0.998835 -0.00159113 0)
(0.998789 -0.00144934 0)
(0.998623 -0.001309 0)
(0.998316 -0.00116953 0)
(0.997845 -0.00103023 0)
(0.99718 -0.000890515 0)
(0.996296 -0.000749958 0)
(0.995179 -0.00060842 0)
(0.993832 -0.000466131 0)
(0.992281 -0.000323701 0)
(0.990585 -0.000181994 0)
(0.988835 -4.1891e-05 0)
(0.987145 9.60539e-05 0)
(0.985651 0.000231974 0)
(0.984485 0.000366975 0)
(0.983761 0.000503211 0)
(0.983552 0.000643688 0)
(0.997193 0.00125571 0)
(0.997058 0.00135999 0)
(0.997028 0.00147355 0)
(0.997095 0.00159386 0)
(0.997262 0.00172038 0)
(0.997546 0.00185253 0)
(0.997968 0.00198975 0)
(0.998558 0.00213179 0)
(0.999345 0.00227888 0)
(1.00035 0.00243182 0)
(1.00158 0.00259215 0)
(1.00303 0.0027622 0)
(1.00463 0.00294484 0)
(1.00629 0.00314311 0)
(1.00791 0.00335939 0)
(1.00933 0.00359456 0)
(1.01039 0.00384709 0)
(1.01098 0.00411252 0)
(1.01101 0.00438352 0)
(0.993491 -0.000204563 0)
(0.993456 0.000271169 0)
(0.99334 0.000752106 0)
(0.993144 0.00123845 0)
(0.992856 0.0017319 0)
(0.992456 0.00223295 0)
(0.991921 0.00274131 0)
(0.991218 0.00325542 0)
(0.99032 0.00377214 0)
(0.989201 0.0042864 0)
(0.987852 0.0047909 0)
(0.986285 0.00527606 0)
(0.984546 0.00573047 0)
(0.982719 0.00614177 0)
(0.980926 0.00649827 0)
(0.979322 0.00679094 0)
(0.978073 0.00701561 0)
(0.977331 0.00717469 0)
(0.977205 0.00727816 0)
(0.986323 -0.0027157 0)
(0.986101 -0.00222345 0)
(0.985932 -0.00172938 0)
(0.985819 -0.00123804 0)
(0.985779 -0.000751355 0)
(0.985842 -0.000271814 0)
(0.98605 0.000197828 0)
(0.986457 0.000655117 0)
(0.987122 0.00109852 0)
(0.988107 0.00152821 0)
(0.98946 0.00194703 0)
(0.991202 0.00236134 0)
(0.993311 0.00278144 0)
(0.995709 0.0032214 0)
(0.998253 0.00369775 0)
(1.00074 0.00422719 0)
(1.00293 0.00482351 0)
(1.00458 0.00549414 0)
(1.00548 0.00623763 0)
(0.979427 -0.00624547 0)
(0.979357 -0.00543006 0)
(0.979252 -0.00460974 0)
(0.979119 -0.00378422 0)
(0.978955 -0.00295412 0)
(0.978749 -0.00211856 0)
(0.978478 -0.00127591 0)
(0.97811 -0.000424035 0)
(0.977597 0.000439459 0)
(0.976882 0.00131661 0)
(0.975905 0.00220808 0)
(0.974613 0.0031119 0)
(0.972979 0.00402228 0)
(0.971021 0.00492888 0)
(0.968819 0.00581701 0)
(0.966525 0.00666919 0)
(0.964358 0.00746809 0)
(0.962575 0.00820036 0)
(0.961427 0.00886035 0)
(0.969689 -0.0114454 0)
(0.969362 -0.0106222 0)
(0.969084 -0.00978608 0)
(0.968855 -0.00894136 0)
(0.968683 -0.0080885 0)
(0.968585 -0.0072287 0)
(0.968587 -0.00636396 0)
(0.968731 -0.00549691 0)
(0.969068 -0.00463065 0)
(0.969664 -0.00376839 0)
(0.970588 -0.00291253 0)
(0.971906 -0.0020633 0)
(0.973659 -0.00121719 0)
(0.975842 -0.000365387 0)
(0.978384 0.000506927 0)
(0.981127 0.00141984 0)
(0.98383 0.00239595 0)
(0.986192 0.00345569 0)
(0.987901 0.00461157 0)
(0.96022 -0.018084 0)
(0.959953 -0.0168192 0)
(0.959676 -0.0155435 0)
(0.959397 -0.0142576 0)
(0.959119 -0.0129632 0)
(0.958839 -0.0116603 0)
(0.958546 -0.0103477 0)
(0.958219 -0.00902331 0)
(0.957821 -0.00768391 0)
(0.957296 -0.00632499 0)
(0.95657 -0.0049417 0)
(0.955558 -0.0035301 0)
(0.954172 -0.00208923 0)
(0.95235 -0.000623543 0)
(0.950082 0.000854925 0)
(0.947447 0.0023258 0)
(0.944632 0.00376194 0)
(0.94193 0.00513402 0)
(0.939703 0.00641732 0)
(0.947963 -0.0256944 0)
(0.947422 -0.0244247 0)
(0.946935 -0.0231325 0)
(0.946497 -0.0218233 0)
(0.946109 -0.0204969 0)
(0.945776 -0.0191537 0)
(0.945509 -0.0177943 0)
(0.945327 -0.0164202 0)
(0.945261 -0.0150335 0)
(0.945355 -0.0136377 0)
(0.945674 -0.0122369 0)
(0.946297 -0.010836 0)
(0.94731 -0.00943843 0)
(0.948792 -0.00804394 0)
(0.950778 -0.00664566 0)
(0.953228 -0.00522771 0)
(0.955992 -0.00376484 0)
(0.958795 -0.0022259 0)
(0.96127 -0.000581274 0)
(0.935976 -0.0339951 0)
(0.935384 -0.0321804 0)
(0.934807 -0.0303353 0)
(0.93425 -0.0284629 0)
(0.933717 -0.0265668 0)
(0.933206 -0.0246491 0)
(0.932712 -0.0227111 0)
(0.932226 -0.0207539 0)
(0.931725 -0.0187775 0)
(0.931174 -0.0167806 0)
(0.930518 -0.0147601 0)
(0.929676 -0.0127119 0)
(0.928548 -0.0106314 0)
(0.92702 -0.00851642 0)
(0.924997 -0.00637051 0)
(0.922442 -0.00420677 0)
(0.919426 -0.00205023 0)
(0.916176 6.37285e-05 0)
(0.913076 0.00209646 0)
(0.921732 -0.0430526 0)
(0.920755 -0.0411981 0)
(0.919856 -0.0393067 0)
(0.919027 -0.0373866 0)
(0.918266 -0.0354391 0)
(0.917574 -0.033466 0)
(0.916953 -0.0314688 0)
(0.916411 -0.0294491 0)
(0.915959 -0.0274085 0)
(0.915619 -0.025349 0)
(0.915428 -0.0232734 0)
(0.915443 -0.0211858 0)
(0.915747 -0.0190908 0)
(0.916445 -0.0169924 0)
(0.917645 -0.0148906 0)
(0.919424 -0.0127769 0)
(0.921769 -0.0106299 0)
(0.92452 -0.00841415 0)
(0.927341 -0.00608594 0)
(0.907197 -0.052938 0)
(0.906087 -0.0504085 0)
(0.905027 -0.047821 0)
(0.904022 -0.0451806 0)
(0.903076 -0.0424911 0)
(0.902186 -0.039754 0)
(0.901347 -0.0369709 0)
(0.900552 -0.0341433 0)
(0.899784 -0.0312728 0)
(0.89902 -0.0283607 0)
(0.898222 -0.025408 0)
(0.897335 -0.0224151 0)
(0.896272 -0.0193816 0)
(0.894921 -0.0163082 0)
(0.893143 -0.0131985 0)
(0.890809 -0.0100646 0)
(0.887853 -0.00693243 0)
(0.88436 -0.00384559 0)
(0.88064 -0.000861345 0)
(0.890848 -0.0630888 0)
(0.889216 -0.0603856 0)
(0.887693 -0.057616 0)
(0.886272 -0.054793 0)
(0.884948 -0.0519228 0)
(0.883718 -0.0490117 0)
(0.882583 -0.0460662 0)
(0.881544 -0.0430935 0)
(0.880607 -0.0401005 0)
(0.879784 -0.037094 0)
(0.879098 -0.0340811 0)
(0.878587 -0.0310693 0)
(0.878318 -0.0280662 0)
(0.87839 -0.0250795 0)
(0.878939 -0.0221139 0)
(0.880117 -0.0191669 0)
(0.882045 -0.0162207 0)
(0.884718 -0.0132339 0)
(0.887906 -0.0101411 0)
(0.873444 -0.0750467 0)
(0.871543 -0.0715329 0)
(0.869744 -0.0679242 0)
(0.868055 -0.0642319 0)
(0.866482 -0.0604616 0)
(0.865028 -0.0566166 0)
(0.863693 -0.0527002 0)
(0.86247 -0.0487159 0)
(0.861351 -0.0446676 0)
(0.860321 -0.0405589 0)
(0.859356 -0.0363939 0)
(0.858414 -0.0321763 0)
(0.857432 -0.0279096 0)
(0.856309 -0.0235972 0)
(0.8549 -0.0192441 0)
(0.853012 -0.0148616 0)
(0.850446 -0.0104753 0)
(0.847086 -0.00613685 0)
(0.843052 -0.00192835 0)
(0.854659 -0.0870449 0)
(0.852081 -0.0831158 0)
(0.849683 -0.0790584 0)
(0.84746 -0.0748979 0)
(0.845409 -0.0706514 0)
(0.843528 -0.0663366 0)
(0.841817 -0.0619725 0)
(0.840278 -0.0575786 0)
(0.838912 -0.0531752 0)
(0.837724 -0.048782 0)
(0.836724 -0.0444186 0)
(0.835936 -0.0401037 0)
(0.835399 -0.0358548 0)
(0.83519 -0.0316881 0)
(0.835432 -0.0276165 0)
(0.836307 -0.0236459 0)
(0.83804 -0.0197652 0)
(0.840812 -0.0159312 0)
(0.844594 -0.0120526 0)
(0.833988 -0.101957 0)
(0.830899 -0.0969937 0)
(0.828011 -0.0918706 0)
(0.825346 -0.0866115 0)
(0.822918 -0.0812317 0)
(0.820739 -0.0757433 0)
(0.818815 -0.0701582 0)
(0.817146 -0.0644888 0)
(0.815727 -0.0587467 0)
(0.814545 -0.0529424 0)
(0.813581 -0.0470855 0)
(0.8128 -0.0411842 0)
(0.812147 -0.0352457 0)
(0.811534 -0.0292761 0)
(0.810819 -0.0232824 0)
(0.809784 -0.0172756 0)
(0.808124 -0.0112816 0)
(0.805495 -0.00535974 0)
(0.801687 0.000377362 0)
(0.812041 -0.117352 0)
(0.807977 -0.111595 0)
(0.804245 -0.105567 0)
(0.80085 -0.0993232 0)
(0.7978 -0.0928972 0)
(0.795101 -0.0863293 0)
(0.792757 -0.0796613 0)
(0.790769 -0.0729377 0)
(0.789137 -0.0662056 0)
(0.787857 -0.0595139 0)
(0.786925 -0.0529135 0)
(0.786342 -0.046456 0)
(0.786123 -0.0401931 0)
(0.786307 -0.0341753 0)
(0.786982 -0.0284477 0)
(0.788313 -0.0230482 0)
(0.790578 -0.0179923 0)
(0.79413 -0.0132522 0)
(0.799263 -0.00872731 0)
(0.787393 -0.136642 0)
(0.782335 -0.129402 0)
(0.777664 -0.121838 0)
(0.773434 -0.113985 0)
(0.769681 -0.105887 0)
(0.76644 -0.0975831 0)
(0.763731 -0.0891174 0)
(0.76157 -0.0805371 0)
(0.75996 -0.0718889 0)
(0.758896 -0.0632181 0)
(0.758359 -0.0545655 0)
(0.758317 -0.0459658 0)
(0.758712 -0.0374459 0)
(0.759458 -0.0290234 0)
(0.760409 -0.0207117 0)
(0.761332 -0.0125159 0)
(0.761836 -0.00445691 0)
(0.761374 0.00340029 0)
(0.75926 0.0109298 0)
(0.761288 -0.15756 0)
(0.754542 -0.149037 0)
(0.748408 -0.139904 0)
(0.742914 -0.130275 0)
(0.738115 -0.120225 0)
(0.734048 -0.109837 0)
(0.730747 -0.0992025 0)
(0.728232 -0.0884185 0)
(0.726512 -0.0775894 0)
(0.725581 -0.0668247 0)
(0.725422 -0.0562408 0)
(0.726008 -0.0459603 0)
(0.72731 -0.0361112 0)
(0.72931 -0.02683 0)
(0.732029 -0.0182469 0)
(0.735557 -0.0105022 0)
(0.740176 -0.00369965 0)
(0.746308 0.00213155 0)
(0.754619 0.00701532 0)
(0.731949 -0.183787 0)
(0.723268 -0.173123 0)
(0.715265 -0.161693 0)
(0.708112 -0.149576 0)
(0.701893 -0.136849 0)
(0.696712 -0.123625 0)
(0.692631 -0.110018 0)
(0.689707 -0.0961631 0)
(0.687966 -0.0821986 0)
(0.68742 -0.0682674 0)
(0.688056 -0.054508 0)
(0.689838 -0.0410483 0)
(0.6927 -0.0279993 0)
(0.696537 -0.0154373 0)
(0.701173 -0.00342638 0)
(0.706368 0.00804383 0)
(0.711569 0.0189753 0)
(0.716099 0.0292954 0)
(0.718779 0.0389681 0)
(0.701397 -0.213374 0)
(0.689541 -0.200856 0)
(0.678802 -0.187032 0)
(0.669211 -0.172036 0)
(0.660965 -0.156066 0)
(0.654167 -0.139284 0)
(0.648944 -0.121892 0)
(0.64536 -0.104095 0)
(0.643473 -0.0861156 0)
(0.643296 -0.068182 0)
(0.644816 -0.0505339 0)
(0.647986 -0.0334225 0)
(0.652729 -0.0171075 0)
(0.658939 -0.00188953 0)
(0.666544 0.0119585 0)
(0.675402 0.0240432 0)
(0.685855 0.0340309 0)
(0.698174 0.0417352 0)
(0.713228 0.0467604 0)
(0.667355 -0.250268 0)
(0.651991 -0.234981 0)
(0.637673 -0.217813 0)
(0.62493 -0.199101 0)
(0.61395 -0.17895 0)
(0.604992 -0.157634 0)
(0.598178 -0.135413 0)
(0.593659 -0.112584 0)
(0.591492 -0.0894439 0)
(0.591726 -0.0663063 0)
(0.594364 -0.0434844 0)
(0.599376 -0.0212911 0)
(0.606687 -4.64285e-05 0)
(0.616192 0.0200077 0)
(0.627612 0.0385588 0)
(0.640877 0.0556046 0)
(0.654913 0.0711047 0)
(0.669072 0.0849274 0)
(0.68188 0.0975889 0)
(0.633441 -0.292788 0)
(0.612199 -0.274822 0)
(0.592954 -0.254253 0)
(0.575823 -0.231128 0)
(0.561235 -0.205932 0)
(0.549367 -0.17906 0)
(0.540497 -0.150922 0)
(0.534686 -0.121919 0)
(0.532053 -0.092457 0)
(0.532634 -0.0629228 0)
(0.536453 -0.0337187 0)
(0.543499 -0.00526886 0)
(0.55373 0.0220043 0)
(0.566999 0.0475062 0)
(0.583349 0.0708441 0)
(0.601958 0.0910148 0)
(0.62381 0.107317 0)
(0.648285 0.11912 0)
(0.67613 0.124304 0)
(0.595557 -0.344881 0)
(0.568079 -0.323498 0)
(0.542698 -0.297981 0)