/*--------------------------------*- C++ -*----------------------------------*\
  =========                 |
  \\      /  F ield         | OpenFOAM: The Open Source CFD Toolbox
   \\    /   O peration     | Website:  https://openfoam.org
    \\  /    A nd           | Version:  10
     \\/     M anipulation  |
\*---------------------------------------------------------------------------*/
FoamFile
{
    format      ascii;
    class       volVectorField;
    location    "0";
    object      U;
}
// * * * * * * * * * * * * * * * * * * * * * * * * * * * * * * * * * * * * * //

dimensions      [0 1 -1 0 0 0 0];

internalField   nonuniform List<vector> 
18483
(
(0.999998 -0.000174785 0)
(0.999999 -0.000625508 0)
(1 -0.00100062 0)
(1 -0.00141001 0)
(1 -0.00180673 0)
(1.00001 -0.00219789 0)
(1.00001 -0.00256731 0)
(1.00001 -0.00290239 0)
(1.00002 -0.00319061 0)
(1.00002 -0.00342337 0)
(1.00003 -0.00360197 0)
(1.00003 -0.00373812 0)
(1.00003 -0.00385301 0)
(1.00002 -0.00398567 0)
(1 -0.00417097 0)
(0.99997 -0.0044124 0)
(0.999865 -0.00464295 0)
(0.99942 -0.00476266 0)
(0.997882 -0.00472041 0)
(0.994257 -0.0045335 0)
(0.989017 -0.00436784 0)
(0.985187 -0.00435728 0)
(0.985324 -0.0043661 0)
(0.988437 -0.00422387 0)
(0.992052 -0.00395921 0)
(0.994895 -0.00366792 0)
(0.996819 -0.00339827 0)
(0.998049 -0.00316571 0)
(0.998813 -0.00297039 0)
(1.00054 -0.000540188 0)
(1.00056 -0.00191134 0)
(1.00063 -0.00303963 0)
(1.00069 -0.00426323 0)
(1.00075 -0.00542573 0)
(1.0008 -0.00655706 0)
(1.00082 -0.00760752 0)
(1.00081 -0.00854728 0)
(1.00076 -0.00934858 0)
(1.00066 -0.00999693 0)
(1.00053 -0.0104888 0)
(1.0004 -0.0108359 0)
(1.00028 -0.0110284 0)
(1.00019 -0.0109991 0)
(1.00011 -0.0106759 0)
(0.999956 -0.010036 0)
(0.999678 -0.0091934 0)
(0.999525 -0.00834875 0)
(1.00049 -0.00765091 0)
(1.00414 -0.00714304 0)
(1.01024 -0.00661531 0)
(1.01478 -0.0058633 0)
(1.01396 -0.00514287 0)
(1.0093 -0.00477357 0)
(1.00449 -0.00467909 0)
(1.0011 -0.00466029 0)
(0.998981 -0.00462983 0)
(0.997692 -0.00456648 0)
(0.996893 -0.00447542 0)
(1.00165 -0.000908313 0)
(1.00172 -0.00319086 0)
(1.00188 -0.00506428 0)
(1.00204 -0.0070932 0)
(1.0022 -0.0090047 0)
(1.00231 -0.0108625 0)
(1.00235 -0.0125826 0)
(1.00229 -0.0141211 0)
(1.00212 -0.0154254 0)
(1.00186 -0.0164583 0)
(1.00153 -0.0171946 0)
(1.00116 -0.0176308 0)
(1.00081 -0.0177936 0)
(1.00047 -0.0177724 0)
(1.0001 -0.0177813 0)
(0.999682 -0.01804 0)
(0.999197 -0.018566 0)
(0.998317 -0.0191702 0)
(0.995871 -0.0195992 0)
(0.990255 -0.0197063 0)
(0.982178 -0.0195302 0)
(0.976549 -0.01929 0)
(0.977498 -0.0189753 0)
(0.982673 -0.0183556 0)
(0.987562 -0.0175341 0)
(0.990699 -0.0167533 0)
(0.992496 -0.0161036 0)
(0.993505 -0.0155917 0)
(0.994072 -0.0151989 0)
(1.00304 -0.0012342 0)
(1.00318 -0.00432294 0)
(1.00346 -0.00687665 0)
(1.00375 -0.00966227 0)
(1.00404 -0.0123056 0)
(1.00425 -0.014906 0)
(1.00431 -0.0173424 0)
(1.0042 -0.0195526 0)
(1.00389 -0.0214514 0)
(1.00339 -0.0229796 0)
(1.00269 -0.0241004 0)
(1.00185 -0.0248015 0)
(1.00092 -0.0251124 0)
(0.999936 -0.0250836 0)
(0.998973 -0.0246869 0)
(0.998096 -0.0237117 0)
(0.997322 -0.0220335 0)
(0.996837 -0.0198962 0)
(0.997674 -0.0177617 0)
(1.00174 -0.0160401 0)
(1.00885 -0.0149854 0)
(1.01369 -0.0144359 0)
(1.01128 -0.0141014 0)
(1.00428 -0.0140229 0)
(0.99813 -0.0140978 0)
(0.994442 -0.0140958 0)
(0.992455 -0.0139722 0)
(0.991399 -0.0137592 0)
(0.990833 -0.0134928 0)
(1.00451 -0.00149371 0)
(1.00474 -0.0052296 0)
(1.00516 -0.00835914 0)
(1.00562 -0.0118177 0)
(1.00608 -0.0151556 0)
(1.00642 -0.018505 0)
(1.00656 -0.0217132 0)
(1.00643 -0.0247059 0)
(1.00598 -0.0273717 0)
(1.0052 -0.029629 0)
(1.00411 -0.0314144 0)
(1.00278 -0.0326913 0)
(1.00128 -0.0334667 0)
(0.999702 -0.0337858 0)
(0.998114 -0.0337619 0)
(0.996515 -0.0336786 0)
(0.994843 -0.0338988 0)
(0.992945 -0.0344839 0)
(0.990036 -0.0351057 0)
(0.984524 -0.0353011 0)
(0.976493 -0.0347115 0)
(0.970774 -0.0334286 0)
(0.972203 -0.031932 0)
(0.977924 -0.0303835 0)
(0.982337 -0.0287946 0)
(0.984376 -0.0273739 0)
(0.985162 -0.0261829 0)
(0.985403 -0.0251935 0)
(0.98541 -0.0243779 0)
(1.00602 -0.0016899 0)
(1.00636 -0.00591932 0)
(1.00694 -0.00951525 0)
(1.00762 -0.0135508 0)
(1.00831 -0.0175248 0)
(1.00885 -0.0216003 0)
(1.00914 -0.0256041 0)
(1.00908 -0.0294521 0)
(1.00859 -0.0329978 0)
(1.00765 -0.0361152 0)
(1.0063 -0.038691 0)
(1.0046 -0.0406532 0)
(1.00264 -0.0419784 0)
(1.00054 -0.0426675 0)
(0.998382 -0.0427205 0)
(0.996279 -0.0420485 0)
(0.994354 -0.0404363 0)
(0.992874 -0.0378665 0)
(0.992646 -0.0348264 0)
(0.995214 -0.0321088 0)
(1.00076 -0.0303942 0)
(1.0047 -0.0298141 0)
(1.00156 -0.0296639 0)
(0.993537 -0.0294508 0)
(0.986815 -0.0292665 0)
(0.983023 -0.0289927 0)
(0.98093 -0.0285801 0)
(0.979705 -0.0280904 0)
(0.978949 -0.02756 0)
(1.00753 -0.00183547 0)
(1.008 -0.00643295 0)
(1.00879 -0.0103981 0)
(1.00973 -0.0149149 0)
(1.01071 -0.0194491 0)
(1.01155 -0.0241959 0)
(1.0121 -0.0289686 0)
(1.01221 -0.0336737 0)
(1.0118 -0.0381322 0)
(1.01079 -0.0421858 0)
(1.00917 -0.0456905 0)
(1.00698 -0.048546 0)
(1.00433 -0.0506893 0)
(1.00135 -0.0520888 0)
(0.998149 -0.052787 0)
(0.994801 -0.053013 0)
(0.991341 -0.0532428 0)
(0.987785 -0.0538639 0)
(0.983895 -0.054695 0)
(0.978717 -0.0550273 0)
(0.971775 -0.054177 0)
(0.966053 -0.0519975 0)
(0.96602 -0.04931 0)
(0.970183 -0.0469149 0)
(0.973154 -0.0446723 0)
(0.973772 -0.0426105 0)
(0.97346 -0.0408558 0)
(0.972893 -0.0393581 0)
(0.972283 -0.0380925 0)
(1.00902 -0.00194241 0)
(1.00964 -0.00681011 0)
(1.01065 -0.0110623 0)
(1.0119 -0.0159697 0)
(1.01322 -0.0209791 0)
(1.01442 -0.0263192 0)
(1.01531 -0.0317993 0)
(1.01571 -0.0373282 0)
(1.01545 -0.0427169 0)
(1.01443 -0.0477961 0)
(1.01259 -0.0523905 0)
(1.01 -0.0563413 0)
(1.00679 -0.0595197 0)
(1.00314 -0.0618525 0)
(0.999214 -0.0633263 0)
(0.995221 -0.0639028 0)
(0.991451 -0.0634103 0)
(0.988232 -0.061635 0)
(0.985958 -0.0587419 0)
(0.985459 -0.0554832 0)
(0.987526 -0.0528165 0)
(0.989919 -0.0513953 0)
(0.987438 -0.0507896 0)
(0.979924 -0.050003 0)
(0.97292 -0.0491628 0)
(0.96879 -0.0484249 0)
(0.966265 -0.0475914 0)
(0.964525 -0.0467138 0)
(0.96326 -0.0458252 0)
(1.01045 -0.00201934 0)
(1.01122 -0.00708005 0)
(1.01247 -0.0115495 0)
(1.01404 -0.0167645 0)
(1.01575 -0.022163 0)
(1.01736 -0.0280094 0)
(1.01866 -0.0341198 0)
(1.01941 -0.0404182 0)
(1.01943 -0.046716 0)
(1.01857 -0.052827 0)
(1.01676 -0.0585301 0)
(1.01405 -0.063605 0)
(1.01052 -0.0678678 0)
(1.00632 -0.0711865 0)
(1.0016 -0.0734849 0)
(0.996525 -0.0747662 0)
(0.991222 -0.0753247 0)
(0.985769 -0.0757795 0)
(0.980141 -0.0765113 0)
(0.973934 -0.0771343 0)
(0.966631 -0.0768031 0)
(0.959556 -0.0749357 0)
(0.956283 -0.0719037 0)
(0.957556 -0.0689177 0)
(0.959082 -0.0661832 0)
(0.958613 -0.0634429 0)
(0.95735 -0.0610073 0)
(0.956028 -0.0588944 0)
(0.954779 -0.0570689 0)
(1.0118 -0.0020718 0)
(1.01272 -0.00726207 0)
(1.01421 -0.0118886 0)
(1.01611 -0.0173366 0)
(1.01821 -0.0230426 0)
(1.02027 -0.0293074 0)
(1.02203 -0.035961 0)
(1.02324 -0.0429461 0)
(1.02367 -0.0500775 0)
(1.02314 -0.0571608 0)
(1.02153 -0.0639625 0)
(1.01877 -0.0702515 0)
(1.0149 -0.0758246 0)
(1.01 -0.080518 0)
(1.00426 -0.0842302 0)
(0.997935 -0.086903 0)
(0.991427 -0.0884039 0)
(0.98529 -0.0883503 0)
(0.980067 -0.0864919 0)
(0.976361 -0.0833459 0)
(0.975036 -0.0799602 0)
(0.975436 -0.0774366 0)
(0.973313 -0.0761578 0)
(0.966135 -0.0749668 0)
(0.957933 -0.0734862 0)
(0.952461 -0.0722475 0)
(0.94892 -0.0709872 0)
(0.946237 -0.0696482 0)
(0.944145 -0.0683244 0)
(1.01305 -0.00210355 0)
(1.0141 -0.00736955 0)
(1.01583 -0.012101 0)
(1.01806 -0.017716 0)
(1.02057 -0.0236546 0)
(1.02309 -0.0302527 0)
(1.02536 -0.0373568 0)
(1.0271 -0.0449317 0)
(1.02804 -0.0528088 0)
(1.02793 -0.0608152 0)
(1.0266 -0.0687361 0)
(1.02391 -0.0763416 0)
(1.01987 -0.083382 0)
(1.0146 -0.0895932 0)
(1.00833 -0.0947267 0)
(1.00133 -0.0985472 0)
(0.993919 -0.100918 0)
(0.986284 -0.102183 0)
(0.978429 -0.103205 0)
(0.970285 -0.104349 0)
(0.961499 -0.104948 0)
(0.95219 -0.103964 0)
(0.9448 -0.101063 0)
(0.942138 -0.097579 0)
(0.942028 -0.0944244 0)
(0.94067 -0.0911212 0)
(0.938293 -0.0879823 0)
(0.936011 -0.0852658 0)
(0.93395 -0.0828797 0)
(1.01418 -0.00211766 0)
(1.01537 -0.00741378 0)
(1.01733 -0.0122055 0)
(1.01988 -0.0179304 0)
(1.02279 -0.0240345 0)
(1.02579 -0.0308868 0)
(1.02859 -0.0383531 0)
(1.03089 -0.0464243 0)
(1.03239 -0.054963 0)
(1.03282 -0.0638297 0)
(1.03193 -0.0728253 0)
(1.02959 -0.0817064 0)
(1.02578 -0.0901795 0)
(1.02052 -0.097924 0)
(1.01389 -0.10466 0)
(1.006 -0.110203 0)
(0.997072 -0.114438 0)
(0.987616 -0.11715 0)
(0.978542 -0.117762 0)
(0.970895 -0.115968 0)
(0.965674 -0.112629 0)
(0.963259 -0.109422 0)
(0.960676 -0.107621 0)
(0.953495 -0.106309 0)
(0.943237 -0.104339 0)
(0.935122 -0.102488 0)
(0.929885 -0.100786 0)
(0.925873 -0.0988878 0)
(0.922668 -0.0969985 0)
(1.01519 -0.0021172 0)
(1.01652 -0.00740584 0)
(1.0187 -0.0122207 0)
(1.02156 -0.0180072 0)
(1.02486 -0.0242188 0)
(1.02833 -0.0312555 0)
(1.03166 -0.0390038 0)
(1.03454 -0.0474825 0)
(1.03667 -0.0565861 0)
(1.03774 -0.0662062 0)
(1.03749 -0.076161 0)
(1.03575 -0.0862223 0)
(1.03236 -0.0961211 0)
(1.02721 -0.105555 0)
(1.02026 -0.114215 0)
(1.01166 -0.121785 0)
(1.00177 -0.127837 0)
(0.991155 -0.131978 0)
(0.980325 -0.134569 0)
(0.969433 -0.136832 0)
(0.958315 -0.13909 0)
(0.946285 -0.139876 0)
(0.93419 -0.137768 0)
(0.926144 -0.133858 0)
(0.92344 -0.130134 0)
(0.921293 -0.126315 0)
(0.917534 -0.122275 0)
(0.9138 -0.118725 0)
(0.910541 -0.115576 0)
(1.0161 -0.00210527 0)
(1.01755 -0.00735668 0)
(1.01993 -0.0121646 0)
(1.02308 -0.0179733 0)
(1.02676 -0.0242441 0)
(1.03068 -0.0314056 0)
(1.03454 -0.0393641 0)
(1.03802 -0.0481623 0)
(1.04081 -0.0577245 0)
(1.04261 -0.0679754 0)
(1.04311 -0.0787729 0)
(1.04205 -0.0899385 0)
(1.0392 -0.101248 0)
(1.0344 -0.112398 0)
(1.02758 -0.122981 0)
(1.01882 -0.132539 0)
(1.00828 -0.140629 0)
(0.996286 -0.146923 0)
(0.983643 -0.151167 0)
(0.971758 -0.152764 0)
(0.962002 -0.151345 0)
(0.95511 -0.148193 0)
(0.950015 -0.145843 0)
(0.942226 -0.144735 0)
(0.929594 -0.142757 0)
(0.917166 -0.140149 0)
(0.908893 -0.137866 0)
(0.902895 -0.135253 0)
(0.897964 -0.132474 0)
(1.01691 -0.00208473 0)
(1.01847 -0.00727644 0)
(1.02104 -0.0120541 0)
(1.02447 -0.0178538 0)
(1.02849 -0.0241448 0)
(1.03284 -0.0313812 0)
(1.03721 -0.039486 0)
(1.04129 -0.0485218 0)
(1.04476 -0.0584429 0)
(1.04729 -0.0692134 0)
(1.04857 -0.0807421 0)
(1.0483 -0.0929 0)
(1.04623 -0.105493 0)
(1.04215 -0.118224 0)
(1.03585 -0.130676 0)
(1.02716 -0.142397 0)
(1.01603 -0.152944 0)
(1.00291 -0.161786 0)
(0.988809 -0.168511 0)
(0.974595 -0.173634 0)
(0.960148 -0.178333 0)
(0.944536 -0.182169 0)
(0.927245 -0.182674 0)
(0.911968 -0.179099 0)
(0.903969 -0.174375 0)
(0.900263 -0.169899 0)
(0.894823 -0.164668 0)
(0.888627 -0.159674 0)
(0.883371 -0.15531 0)
(1.01763 -0.00205813 0)
(1.0193 -0.00717403 0)
(1.02204 -0.011904 0)
(1.02572 -0.0176708 0)
(1.03007 -0.0239513 0)
(1.03483 -0.0312221 0)
(1.03968 -0.0394185 0)
(1.04433 -0.0486216 0)
(1.04845 -0.0588157 0)
(1.05173 -0.0700016 0)
(1.05384 -0.0821324 0)
(1.05448 -0.0951214 0)
(1.05339 -0.108819 0)
(1.05025 -0.122994 0)
(1.04468 -0.137297 0)
(1.03634 -0.151262 0)
(1.02514 -0.164337 0)
(1.01155 -0.175876 0)
(0.996418 -0.185299 0)
(0.980813 -0.192031 0)
(0.966023 -0.19508 0)
(0.953134 -0.194089 0)
(0.942703 -0.191516 0)
(0.932666 -0.190639 0)
(0.917927 -0.189852 0)
(0.89968 -0.186913 0)
(0.885628 -0.183758 0)
(0.876257 -0.180382 0)
(0.868493 -0.17627 0)
(1.01828 -0.00202754 0)
(1.02003 -0.0070569 0)
(1.02293 -0.0117269 0)
(1.02684 -0.017443 0)
(1.0315 -0.0236898 0)
(1.03663 -0.0309629 0)
(1.04194 -0.0392063 0)
(1.04713 -0.0485186 0)
(1.05189 -0.0589098 0)
(1.0559 -0.0704081 0)
(1.05887 -0.0830044 0)
(1.06049 -0.0966603 0)
(1.06046 -0.111294 0)
(1.05838 -0.126765 0)
(1.05379 -0.142783 0)
(1.04624 -0.15887 0)
(1.03551 -0.17446 0)
(1.02183 -0.188953 0)
(1.0059 -0.201699 0)
(0.988605 -0.212286 0)
(0.970268 -0.221367 0)
(0.950149 -0.229735 0)
(0.927205 -0.235563 0)
(0.903323 -0.235182 0)
(0.88573 -0.229843 0)
(0.877196 -0.224285 0)
(0.869601 -0.21807 0)
(0.85954 -0.210911 0)
(0.850707 -0.204611 0)
(1.01885 -0.00199461 0)
(1.02069 -0.00693115 0)
(1.02374 -0.0115333 0)
(1.02785 -0.0171857 0)
(1.0328 -0.0233821 0)
(1.03827 -0.0306333 0)
(1.044 -0.0388884 0)
(1.0497 -0.0482618 0)
(1.05505 -0.0587833 0)
(1.05978 -0.0705006 0)
(1.0636 -0.0834409 0)
(1.0662 -0.0976201 0)
(1.06725 -0.113023 0)
(1.06634 -0.129586 0)
(1.06299 -0.147092 0)
(1.0566 -0.165139 0)
(1.04671 -0.183247 0)
(1.03341 -0.200856 0)
(1.01737 -0.217202 0)
(0.999373 -0.231318 0)
(0.980195 -0.241801 0)
(0.960822 -0.246784 0)
(0.942633 -0.246532 0)
(0.927079 -0.245769 0)
(0.909837 -0.247268 0)
(0.88558 -0.246295 0)
(0.861637 -0.242245 0)
(0.84555 -0.23805 0)
(0.833142 -0.232397 0)
(1.01937 -0.00196062 0)
(1.02128 -0.00680162 0)
(1.02446 -0.0113314 0)
(1.02877 -0.0169118 0)
(1.03397 -0.0230458 0)
(1.03976 -0.0302572 0)
(1.04587 -0.0384967 0)
(1.05204 -0.0478921 0)
(1.05796 -0.0584881 0)
(1.06336 -0.0703478 0)
(1.06798 -0.0835315 0)
(1.07152 -0.0981023 0)
(1.07367 -0.114097 0)
(1.07405 -0.131526 0)
(1.07209 -0.150283 0)
(1.06709 -0.170093 0)
(1.05847 -0.190572 0)
(1.04619 -0.211185 0)
(1.03074 -0.231139 0)
(1.01247 -0.249455 0)
(0.991326 -0.265578 0)
(0.966644 -0.280402 0)
(0.937862 -0.29427 0)
(0.905586 -0.302725 0)
(0.874654 -0.300991 0)
(0.854288 -0.294152 0)
(0.842094 -0.287479 0)
(0.827065 -0.278471 0)
(0.811614 -0.26915 0)
(1.01983 -0.00192656 0)
(1.02181 -0.00667205 0)
(1.02511 -0.0111279 0)
(1.02959 -0.0166314 0)
(1.03502 -0.0226953 0)
(1.0411 -0.0298537 0)
(1.04757 -0.0380571 0)
(1.05417 -0.0474444 0)
(1.06062 -0.0580713 0)
(1.06664 -0.0700132 0)
(1.07201 -0.0833543 0)
(1.07646 -0.0981947 0)
(1.07971 -0.114614 0)
(1.08139 -0.132702 0)
(1.0809 -0.152472 0)
(1.07748 -0.173781 0)
(1.07051 -0.196364 0)
(1.05977 -0.219797 0)
(1.04542 -0.243401 0)
(1.02759 -0.266221 0)
(1.0062 -0.286788 0)
(0.981631 -0.302526 0)
(0.955547 -0.310531 0)
(0.930828 -0.312426 0)
(0.90816 -0.316223 0)
(0.879281 -0.321362 0)
(0.842547 -0.319499 0)
(0.812617 -0.314297 0)
(0.792012 -0.307779 0)
(1.02025 -0.00189313 0)
(1.02229 -0.0065452 0)
(1.02569 -0.0109274 0)
(1.03032 -0.016352 0)
(1.03597 -0.0223415 0)
(1.04231 -0.0294381 0)
(1.04911 -0.0375903 0)
(1.0561 -0.0469472 0)
(1.06303 -0.0575719 0)
(1.06963 -0.0695481 0)
(1.07569 -0.0829739 0)
(1.08101 -0.0979788 0)
(1.08532 -0.114681 0)
(1.08826 -0.133243 0)
(1.08925 -0.153787 0)
(1.08756 -0.176299 0)
(1.08249 -0.200677 0)
(1.07367 -0.226653 0)
(1.06105 -0.253643 0)
(1.04457 -0.280719 0)
(1.0236 -0.306568 0)
(0.996863 -0.330579 0)
(0.963711 -0.354497 0)
(0.924609 -0.377466 0)
(0.8805 -0.389573 0)
(0.840202 -0.386067 0)
(0.814676 -0.378744 0)
(0.793636 -0.370541 0)
(0.767816 -0.357784 0)
(1.02061 -0.00186081 0)
(1.02271 -0.0064231 0)
(1.02621 -0.0107337 0)
(1.03097 -0.0160794 0)
(1.03681 -0.0219929 0)
(1.04338 -0.0290223 0)
(1.05049 -0.0371131 0)
(1.05784 -0.0464238 0)
(1.0652 -0.057021 0)
(1.07233 -0.0689941 0)
(1.07904 -0.0824471 0)
(1.08517 -0.0975336 0)
(1.09045 -0.114405 0)
(1.09459 -0.133277 0)
(1.09706 -0.154371 0)
(1.09714 -0.177799 0)
(1.09412 -0.203634 0)
(1.08753 -0.231778 0)
(1.07716 -0.261766 0)
(1.06269 -0.292933 0)
(1.04311 -0.324245 0)
(1.01724 -0.353631 0)
(0.986255 -0.377259 0)
(0.952991 -0.390654 0)
(0.920151 -0.397719 0)
(0.885778 -0.410827 0)
(0.838643 -0.421178 0)
(0.785729 -0.417674 0)
(0.74736 -0.411009 0)
(1.02094 -0.00182999 0)
(1.02309 -0.00630716 0)
(1.02666 -0.0105493 0)
(1.03155 -0.0158176 0)
(1.03756 -0.0216557 0)
(1.04434 -0.0286154 0)
(1.05171 -0.0366385 0)
(1.05939 -0.0458922 0)
(1.06715 -0.0564432 0)
(1.07477 -0.0683849 0)
(1.08207 -0.0818231 0)
(1.08892 -0.0969269 0)
(1.09512 -0.113875 0)
(1.10038 -0.132918 0)
(1.10428 -0.154365 0)
(1.10611 -0.178448 0)
(1.10519 -0.205391 0)
(1.10105 -0.235282 0)
(1.09328 -0.267828 0)
(1.08142 -0.302573 0)
(1.06433 -0.338706 0)
(1.04004 -0.37463 0)
(1.00706 -0.410332 0)
(0.965245 -0.44918 0)
(0.913592 -0.487622 0)
(0.852145 -0.505663 0)
(0.797624 -0.500552 0)
(0.761733 -0.494616 0)
(0.724333 -0.48306 0)
(1.02122 -0.00180095 0)
(1.02342 -0.00619836 0)
(1.02707 -0.0103757 0)
(1.03206 -0.0155697 0)
(1.03823 -0.0213344 0)
(1.04519 -0.0282241 0)
(1.0528 -0.0361764 0)
(1.06078 -0.0453665 0)
(1.06889 -0.0558585 0)
(1.07694 -0.0677488 0)
(1.08478 -0.0811424 0)
(1.09228 -0.0962148 0)
(1.09932 -0.113165 0)
(1.10564 -0.132269 0)
(1.11088 -0.153905 0)
(1.1144 -0.178416 0)
(1.11556 -0.206147 0)
(1.11391 -0.237365 0)
(1.109 -0.27198 0)
(1.10019 -0.309714 0)
(1.0862 -0.350198 0)
(1.06489 -0.392545 0)
(1.03518 -0.434545 0)
(0.998858 -0.47047 0)
(0.957286 -0.492912 0)
(0.912754 -0.511183 0)
(0.859821 -0.543047 0)
(0.78364 -0.560098 0)
(0.706732 -0.552937 0)
(1.02147 -0.00177388 0)
(1.02371 -0.00609727 0)
(1.02742 -0.0102141 0)
(1.03251 -0.0153375 0)
(1.03881 -0.0210321 0)
(1.04594 -0.027853 0)
(1.05377 -0.035734 0)
(1.062 -0.044857 0)
(1.07043 -0.0552822 0)
(1.07888 -0.0671078 0)
(1.08719 -0.0804358 0)
(1.09529 -0.0954411 0)
(1.10309 -0.112337 0)
(1.11038 -0.131419 0)
(1.11684 -0.153112 0)
(1.12197 -0.177858 0)
(1.12514 -0.206102 0)
(1.12593 -0.23825 0)
(1.12397 -0.274428 0)
(1.11852 -0.314568 0)
(1.10814 -0.358529 0)
(1.09102 -0.405938 0)
(1.06523 -0.455815 0)
(1.02759 -0.508912 0)
(0.976772 -0.572289 0)
(0.909796 -0.639283 0)
(0.821163 -0.668604 0)
(0.738925 -0.662668 0)
(0.680991 -0.659342 0)
(1.02169 -0.00174888 0)
(1.02396 -0.00600418 0)
(1.02773 -0.0100649 0)
(1.03291 -0.0151223 0)
(1.03933 -0.0207509 0)
(1.04661 -0.0275055 0)
(1.05462 -0.0353165 0)
(1.06308 -0.0443716 0)
(1.0718 -0.0547264 0)
(1.08059 -0.0664789 0)
(1.08933 -0.0797276 0)
(1.09796 -0.094642 0)
(1.10644 -0.111445 0)
(1.1146 -0.130442 0)
(1.12219 -0.152093 0)
(1.12879 -0.176918 0)
(1.13386 -0.205451 0)
(1.13698 -0.238193 0)
(1.1379 -0.27545 0)
(1.13598 -0.317402 0)
(1.12956 -0.364057 0)
(1.11689 -0.415605 0)
(1.0968 -0.472747 0)
(1.06698 -0.533451 0)
(1.02636 -0.588313 0)
(0.975131 -0.625219 0)
(0.915553 -0.668739 0)
(0.829593 -0.742265 0)
(0.69579 -0.762921 0)
(1.02188 -0.00172599 0)
(1.02418 -0.00591911 0)
(1.028 -0.00992836 0)
(1.03326 -0.0149245 0)
(1.03978 -0.0204915 0)
(1.04719 -0.0271833 0)
(1.05537 -0.0349271 0)
(1.06404 -0.0439154 0)
(1.073 -0.0541989 0)
(1.0821 -0.0658747 0)
(1.09122 -0.0790359 0)
(1.10032 -0.0938453 0)
(1.1094 -0.110527 0)
(1.11834 -0.129397 0)
(1.12694 -0.150934 0)
(1.13489 -0.175717 0)
(1.14172 -0.204356 0)
(1.14704 -0.237424 0)
(1.15066 -0.275335 0)
(1.15219 -0.318512 0)
(1.14999 -0.367203 0)
(1.14209 -0.421665 0)
(1.12856 -0.483326 0)
(1.10685 -0.552782 0)
(1.06662 -0.630591 0)
(1.00782 -0.733681 0)
(0.930512 -0.862174 0)
(0.79155 -0.925211 0)
(0.624643 -0.913583 0)
(1.02204 -0.00170517 0)
(1.02438 -0.00584195 0)
(1.02824 -0.00980426 0)
(1.03356 -0.0147443 0)
(1.04017 -0.0202545 0)
(1.0477 -0.0268875 0)
(1.05603 -0.0345678 0)
(1.06488 -0.0434919 0)
(1.07407 -0.0537056 0)
(1.08343 -0.0653041 0)
(1.09288 -0.0783748 0)
(1.1024 -0.0930724 0)
(1.112 -0.109619 0)
(1.12163 -0.128333 0)
(1.13114 -0.149707 0)
(1.14029 -0.17436 0)
(1.14872 -0.202965 0)
(1.15607 -0.236155 0)
(1.1622 -0.274402 0)
(1.1669 -0.318266 0)
(1.16892 -0.368317 0)
(1.16615 -0.424856 0)
(1.15846 -0.489427 0)
(1.14595 -0.566192 0)
(1.12307 -0.655359 0)
(1.08444 -0.738662 0)
(1.02469 -0.797655 0)
(0.94648 -0.909107 0)
(0.776113 -1.08381 0)
(1.02219 -0.00168639 0)
(1.02455 -0.00577244 0)
(1.02845 -0.00969223 0)
(1.03383 -0.0145812 0)
(1.04052 -0.0200395 0)
(1.04815 -0.0266182 0)
(1.05661 -0.0342394 0)
(1.06561 -0.0431029 0)
(1.075 -0.0532495 0)
(1.0846 -0.0647727 0)
(1.09434 -0.0777532 0)
(1.10421 -0.0923373 0)
(1.11427 -0.108741 0)
(1.12451 -0.127283 0)
(1.13483 -0.148464 0)
(1.14505 -0.172929 0)
(1.1549 -0.201394 0)
(1.1641 -0.234547 0)
(1.17253 -0.272898 0)
(1.18008 -0.317035 0)
(1.18596 -0.367764 0)
(1.18845 -0.42572 0)
(1.18677 -0.491987 0)
(1.18338 -0.571033 0)
(1.1763 -0.666867 0)
(1.14295 -0.773048 0)
(1.08334 -0.930906 0)
(1.01679 -1.21398 0)
(0.72426 -1.32676 0)
(0.999278 -0.00280526 0)
(0.999559 -0.00265183 0)
(0.999685 -0.0024965 0)
(0.99964 -0.00233933 0)
(0.999394 -0.00218118 0)
(0.998903 -0.00202354 0)
(0.998111 -0.00186899 0)
(0.996961 -0.00172143 0)
(0.995402 -0.00158603 0)
(0.993406 -0.00146896 0)
(0.990982 -0.00137692 0)
(0.98819 -0.00131619 0)
(0.985155 -0.00129164 0)
(0.98206 -0.00130554 0)
(0.979141 -0.00135669 0)
(0.976657 -0.00143998 0)
(0.974855 -0.00154667 0)
(0.973927 -0.00166529 0)
(0.973977 -0.00178318 0)
(0.996387 -0.00437089 0)
(0.996054 -0.00426022 0)
(0.995865 -0.00414372 0)
(0.995848 -0.00402396 0)
(0.996052 -0.00390172 0)
(0.996548 -0.00377808 0)
(0.997421 -0.00365405 0)
(0.998761 -0.00353032 0)
(1.00065 -0.00340713 0)
(1.00313 -0.0032843 0)
(1.0062 -0.00316135 0)
(1.00978 -0.00303791 0)
(1.01369 -0.00291415 0)
(1.01768 -0.00279143 0)
(1.02142 -0.00267253 0)
(1.02457 -0.00256162 0)
(1.02679 -0.00246353 0)
(1.02785 -0.00238248 0)
(1.02763 -0.00232059 0)
(0.994388 -0.0148937 0)
(0.994559 -0.0146287 0)
(0.994613 -0.0143745 0)
(0.994542 -0.0141288 0)
(0.994319 -0.0138902 0)
(0.993907 -0.0136554 0)
(0.993253 -0.0134199 0)
(0.9923 -0.0131776 0)
(0.990996 -0.0129217 0)
(0.989307 -0.0126438 0)
(0.987238 -0.0123353 0)
(0.984847 -0.0119869 0)
(0.982256 -0.0115902 0)
(0.979651 -0.0111378 0)
(0.977266 -0.0106248 0)
(0.975347 -0.0100494 0)
(0.97411 -0.00941395 0)
(0.973696 -0.00872569 0)
(0.974137 -0.00799718 0)
(0.990528 -0.0132068 0)
(0.990367 -0.0129084 0)
(0.990317 -0.0125901 0)
(0.990385 -0.0122559 0)
(0.990595 -0.0119067 0)
(0.990985 -0.0115436 0)
(0.991605 -0.0111682 0)
(0.992508 -0.0107824 0)
(0.993741 -0.0103878 0)
(0.995327 -0.00998677 0)
(0.997251 -0.00958127 0)
(0.999443 -0.00917344 0)
(1.00177 -0.00876531 0)
(1.00404 -0.00835882 0)
(1.00603 -0.00795576 0)
(1.00749 -0.00755773 0)
(1.00824 -0.00716582 0)
(1.00817 -0.00678011 0)
(1.00727 -0.00639919 0)
(0.985314 -0.0236948 0)
(0.985154 -0.0230645 0)
(0.984926 -0.0224309 0)
(0.984616 -0.0217924 0)
(0.984198 -0.021149 0)
(0.983636 -0.0204992 0)
(0.982884 -0.019841 0)
(0.981891 -0.0191719 0)
(0.980612 -0.0184896 0)
(0.979018 -0.0177918 0)
(0.977112 -0.0170775 0)
(0.974946 -0.0163472 0)
(0.97263 -0.015603 0)
(0.97033 -0.0148485 0)
(0.968254 -0.0140882 0)
(0.96662 -0.0133263 0)
(0.965611 -0.0125658 0)
(0.965333 -0.0118076 0)
(0.965791 -0.0110512 0)
(0.978455 -0.0270267 0)
(0.9781 -0.0264875 0)
(0.977835 -0.0259227 0)
(0.977662 -0.0253377 0)
(0.977591 -0.0247342 0)
(0.977648 -0.024115 0)
(0.977868 -0.023483 0)
(0.978292 -0.0228412 0)
(0.978963 -0.0221914 0)
(0.979912 -0.0215342 0)
(0.981144 -0.0208671 0)
(0.982621 -0.0201842 0)
(0.984252 -0.0194762 0)
(0.985888 -0.0187309 0)
(0.987334 -0.0179361 0)
(0.98838 -0.0170819 0)
(0.988836 -0.0161649 0)
(0.988585 -0.0151895 0)
(0.987609 -0.0141689 0)
(0.971707 -0.0370104 0)
(0.971147 -0.0359944 0)
(0.97057 -0.0349566 0)
(0.969966 -0.0338954 0)
(0.969318 -0.0328106 0)
(0.968596 -0.0317011 0)
(0.96776 -0.030565 0)
(0.966759 -0.0294011 0)
(0.965533 -0.0282095 0)
(0.964025 -0.0269925 0)
(0.962197 -0.0257566 0)
(0.960045 -0.0245138 0)
(0.957621 -0.0232814 0)
(0.95505 -0.0220816 0)
(0.952531 -0.0209378 0)
(0.950314 -0.01987 0)
(0.94866 -0.0188887 0)
(0.947778 -0.017991 0)
(0.947771 -0.0171593 0)
(0.962287 -0.0449576 0)
(0.961458 -0.0440938 0)
(0.960695 -0.0431964 0)
(0.959996 -0.0422703 0)
(0.959366 -0.0413164 0)
(0.958825 -0.0403368 0)
(0.958405 -0.0393352 0)
(0.958152 -0.0383158 0)
(0.958129 -0.0372827 0)
(0.958403 -0.0362382 0)
(0.959037 -0.0351814 0)
(0.960067 -0.0341054 0)
(0.961479 -0.0329958 0)
(0.963179 -0.031831 0)
(0.964985 -0.0305844 0)
(0.966634 -0.0292313 0)
(0.967824 -0.0277565 0)
(0.96828 -0.0261633 0)
(0.967828 -0.0244771 0)
(0.953662 -0.0554886 0)
(0.952614 -0.0539908 0)
(0.951573 -0.0524515 0)
(0.950539 -0.050872 0)
(0.949509 -0.0492556 0)
(0.948469 -0.0476041 0)
(0.947397 -0.0459187 0)
(0.946252 -0.0442006 0)
(0.944976 -0.0424512 0)
(0.943494 -0.0406731 0)
(0.94172 -0.038872 0)
(0.939575 -0.03706 0)
(0.937022 -0.0352575 0)
(0.934097 -0.033495 0)
(0.930951 -0.0318109 0)
(0.927862 -0.0302452 0)
(0.925211 -0.0288284 0)
(0.923407 -0.0275686 0)
(0.922772 -0.0264426 0)
(0.942453 -0.0670446 0)
(0.940959 -0.0657788 0)
(0.939545 -0.0644687 0)
(0.93821 -0.0631229 0)
(0.936962 -0.0617446 0)
(0.935818 -0.0603387 0)
(0.934804 -0.0589114 0)
(0.933959 -0.0574698 0)
(0.933343 -0.0560212 0)
(0.933036 -0.0545727 0)
(0.933137 -0.0531279 0)
(0.933746 -0.0516841 0)
(0.934943 -0.0502271 0)
(0.936733 -0.0487272 0)
(0.939002 -0.0471372 0)
(0.941479 -0.0453973 0)
(0.943735 -0.0434479 0)
(0.945259 -0.0412503 0)
(0.945588 -0.0388071 0)
(0.932146 -0.0807943 0)
(0.930492 -0.0788055 0)
(0.928888 -0.0767543 0)
(0.927346 -0.0746445 0)
(0.925875 -0.0724791 0)
(0.924473 -0.0702592 0)
(0.923132 -0.0679842 0)
(0.921825 -0.0656522 0)
(0.920504 -0.0632593 0)
(0.919088 -0.0607996 0)
(0.91746 -0.0582672 0)
(0.915469 -0.0556591 0)
(0.912954 -0.0529813 0)
(0.909789 -0.0502559 0)
(0.905959 -0.0475276 0)
(0.901638 -0.044864 0)
(0.897251 -0.0423443 0)
(0.893442 -0.0400362 0)
(0.890931 -0.0379656 0)
(0.920071 -0.0951732 0)
(0.91777 -0.093352 0)
(0.915588 -0.0914475 0)
(0.913523 -0.08947 0)
(0.911575 -0.0874258 0)
(0.90975 -0.0853216 0)
(0.908055 -0.0831648 0)
(0.906506 -0.0809636 0)
(0.905131 -0.078727 0)
(0.903982 -0.0764659 0)
(0.903143 -0.0741926 0)
(0.902743 -0.0719195 0)
(0.902945 -0.0696538 0)
(0.90391 -0.0673891 0)
(0.905727 -0.0650939 0)
(0.908307 -0.062703 0)
(0.91128 -0.060119 0)
(0.913977 -0.0572352 0)
(0.91555 -0.0539799 0)
(0.907682 -0.112762 0)
(0.905077 -0.110053 0)
(0.902562 -0.107233 0)
(0.900156 -0.104311 0)
(0.897872 -0.101286 0)
(0.895714 -0.0981597 0)
(0.893681 -0.0949295 0)
(0.891761 -0.0915947 0)
(0.889927 -0.088154 0)
(0.888129 -0.0846045 0)
(0.886279 -0.0809413 0)
(0.884242 -0.0771575 0)
(0.881817 -0.0732474 0)
(0.878758 -0.0692146 0)
(0.874829 -0.0650856 0)
(0.869921 -0.0609266 0)
(0.86423 -0.056851 0)
(0.8584 -0.0530044 0)
(0.853514 -0.0495149 0)
(0.893993 -0.129774 0)
(0.890471 -0.127016 0)
(0.887124 -0.12408 0)
(0.883952 -0.120985 0)
(0.880951 -0.11775 0)
(0.878124 -0.114396 0)
(0.875476 -0.110944 0)
(0.87301 -0.107414 0)
(0.870737 -0.103828 0)
(0.868678 -0.100207 0)
(0.866879 -0.0965748 0)
(0.865428 -0.0929577 0)
(0.864481 -0.0893835 0)
(0.864267 -0.0858777 0)
(0.865062 -0.0824502 0)
(0.867082 -0.0790725 0)
(0.870284 -0.0756511 0)
(0.874138 -0.0720208 0)
(0.877535 -0.0679862 0)
(0.878756 -0.151283 0)
(0.874548 -0.147371 0)
(0.870516 -0.143262 0)
(0.866683 -0.138972 0)
(0.863079 -0.134509 0)
(0.859721 -0.129875 0)
(0.856615 -0.125075 0)
(0.853759 -0.120117 0)
(0.851139 -0.115007 0)
(0.84873 -0.109755 0)
(0.84648 -0.104365 0)
(0.844303 -0.098845 0)
(0.842049 -0.0931946 0)
(0.839476 -0.0874145 0)
(0.836234 -0.0815128 0)
(0.831922 -0.0755289 0)
(0.826269 -0.0695701 0)
(0.81948 -0.0638355 0)
(0.81261 -0.058594 0)
(0.862192 -0.172163 0)
(0.856681 -0.167864 0)
(0.851456 -0.163172 0)
(0.846557 -0.15816 0)
(0.841984 -0.152858 0)
(0.837747 -0.147323 0)
(0.833859 -0.141603 0)
(0.830325 -0.135751 0)
(0.82715 -0.12982 0)
(0.824344 -0.123867 0)
(0.821925 -0.11795 0)
(0.819936 -0.11213 0)
(0.818471 -0.106469 0)
(0.817708 -0.101034 0)
(0.817947 -0.0958843 0)
(0.819604 -0.0910596 0)
(0.82307 -0.0865274 0)
(0.828342 -0.0821281 0)
(0.8345 -0.077526 0)
(0.843202 -0.198709 0)
(0.836279 -0.192778 0)
(0.829751 -0.186488 0)
(0.823624 -0.179805 0)
(0.817964 -0.172783 0)
(0.812827 -0.165444 0)
(0.80823 -0.157825 0)
(0.8042 -0.149974 0)
(0.800739 -0.141932 0)
(0.797842 -0.133745 0)
(0.795479 -0.125453 0)
(0.793596 -0.117089 0)
(0.792088 -0.108681 0)
(0.790768 -0.100244 0)
(0.789305 -0.0917852 0)
(0.787164 -0.0833162 0)
(0.783626 -0.074909 0)
(0.77808 -0.0667489 0)
(0.770731 -0.0592358 0)
(0.822611 -0.226051 0)
(0.813613 -0.219339 0)
(0.805115 -0.211721 0)
(0.797244 -0.203442 0)
(0.790077 -0.194555 0)
(0.78363 -0.185165 0)
(0.777973 -0.175387 0)
(0.773121 -0.165323 0)
(0.769098 -0.155098 0)
(0.765902 -0.144834 0)
(0.763532 -0.134667 0)
(0.761986 -0.124739 0)
(0.761285 -0.1152 0)
(0.761502 -0.10621 0)
(0.762827 -0.0979287 0)
(0.765648 -0.0905198 0)
(0.770607 -0.0840783 0)
(0.778382 -0.0786102 0)
(0.789085 -0.0737808 0)
(0.799071 -0.260681 0)
(0.787381 -0.251559 0)
(0.776398 -0.241641 0)
(0.766288 -0.230827 0)
(0.757089 -0.219189 0)
(0.748998 -0.20687 0)
(0.74205 -0.193961 0)
(0.736338 -0.180623 0)
(0.731885 -0.166999 0)
(0.728723 -0.153245 0)
(0.726839 -0.139504 0)
(0.726199 -0.125913 0)
(0.726723 -0.11258 0)
(0.728261 -0.0995897 0)
(0.73053 -0.0869915 0)
(0.733009 -0.0747747 0)
(0.734758 -0.0630015 0)
(0.734486 -0.0517331 0)
(0.73049 -0.0413121 0)
(0.774062 -0.298395 0)
(0.75851 -0.288011 0)
(0.744119 -0.275852 0)
(0.730758 -0.262125 0)
(0.718893 -0.247179 0)
(0.708509 -0.2311 0)
(0.699825 -0.214183 0)
(0.692888 -0.196635 0)
(0.687791 -0.178718 0)
(0.684534 -0.160687 0)
(0.683125 -0.14282 0)
(0.68352 -0.125401 0)
(0.685665 -0.108738 0)
(0.689504 -0.0931615 0)
(0.695044 -0.0790142 0)
(0.702445 -0.0667352 0)
(0.712334 -0.0565769 0)
(0.725457 -0.0489512 0)
(0.743796 -0.0439892 0)
(0.745551 -0.345696 0)
(0.725676 -0.332347 0)
(0.706461 -0.316584 0)
(0.689201 -0.299106 0)
(0.673681 -0.279643 0)
(0.660408 -0.258732 0)
(0.649451 -0.236588 0)
(0.641023 -0.213569 0)
(0.635148 -0.190021 0)
(0.631922 -0.16629 0)
(0.631323 -0.142719 0)
(0.633335 -0.119648 0)
(0.637881 -0.0973924 0)
(0.644826 -0.0762199 0)
(0.653909 -0.0563799 0)
(0.664701 -0.037821 0)
(0.675921 -0.0208082 0)
(0.686653 -0.00516247 0)
(0.692622 0.00922429 0)
(0.71753 -0.399562 0)
(0.689718 -0.383358 0)
(0.664864 -0.364526 0)
(0.641869 -0.34204 0)
(0.62182 -0.317164 0)
(0.604768 -0.290127 0)
(0.591078 -0.261437 0)
(0.580744 -0.231623 0)
(0.573979 -0.201115 0)
(0.57072 -0.170372 0)
(0.571026 -0.139848 0)
(0.574849 -0.109999 0)
(0.582136 -0.0813217 0)
(0.592782 -0.0543999 0)
(0.606683 -0.0297784 0)
(0.623551 -0.00860064 0)
(0.644519 0.00880655 0)
(0.668648 0.0209678 0)
(0.700623 0.026302 0)
(0.683765 -0.464558 0)
(0.649387 -0.445822 0)
(0.616242 -0.420862 0)
(0.586757 -0.39229 0)
(0.561165 -0.360286 0)
(0.539962 -0.325461 0)
(0.523055 -0.288835 0)
(0.51083 -0.250828 0)
(0.502988 -0.212084 0)
(0.49972 -0.173086 0)
(0.500928 -0.134298 0)
(0.506671 -0.0962122 0)