/*--------------------------------*- C++ -*----------------------------------*\
  =========                 |
  \\      /  F ield         | OpenFOAM: The Open Source CFD Toolbox
   \\    /   O peration     | Website:  https://openfoam.org
    \\  /    A nd           | Version:  10
     \\/     M anipulation  |
\*---------------------------------------------------------------------------*/
FoamFile
{
    format      ascii;
    class       volVectorField;
    location    "0";
    object      U;
}
// * * * * * * * * * * * * * * * * * * * * * * * * * * * * * * * * * * * * * //

dimensions      [0 1 -1 0 0 0 0];

internalField   nonuniform List<vector> 
18483
(
(1 -0.000195605 0)
(1 -0.000695909 0)
(1 -0.00109922 0)
(1 -0.00152309 0)
(1 -0.00191203 0)
(1 -0.00227125 0)
(1 -0.00258402 0)
(1 -0.00283993 0)
(1.00001 -0.00303102 0)
(1.00001 -0.00315274 0)
(1.00002 -0.00320745 0)
(1.00004 -0.00320844 0)
(1.00007 -0.00318061 0)
(1.0001 -0.00317838 0)
(1.00014 -0.0032612 0)
(1.00017 -0.00345241 0)
(1.00014 -0.00370901 0)
(0.999807 -0.00394272 0)
(0.998535 -0.00407346 0)
(0.99561 -0.00405264 0)
(0.991518 -0.00391299 0)
(0.988535 -0.00377087 0)
(0.988497 -0.00364316 0)
(0.990763 -0.00346503 0)
(0.99358 -0.00324438 0)
(0.995908 -0.00302088 0)
(0.997537 -0.00281957 0)
(0.998597 -0.00264961 0)
(0.999268 -0.00251038 0)
(1.0006 -0.000575889 0)
(1.00061 -0.00203392 0)
(1.00066 -0.00321077 0)
(1.0007 -0.00445676 0)
(1.00072 -0.00560007 0)
(1.00072 -0.00666194 0)
(1.00069 -0.00758895 0)
(1.00061 -0.00834818 0)
(1.00049 -0.00891195 0)
(1.00033 -0.0092696 0)
(1.00013 -0.00942898 0)
(0.999927 -0.00942824 0)
(0.999752 -0.00929565 0)
(0.999641 -0.00895063 0)
(0.999601 -0.00828107 0)
(0.99958 -0.00723884 0)
(0.999527 -0.0058899 0)
(0.999606 -0.00443751 0)
(1.00044 -0.0031178 0)
(1.00295 -0.00216087 0)
(1.00696 -0.00168211 0)
(1.01005 -0.00146982 0)
(1.00981 -0.00131029 0)
(1.00685 -0.00120781 0)
(1.0034 -0.0011279 0)
(1.00073 -0.00101893 0)
(0.999002 -0.000868018 0)
(0.997958 -0.00068372 0)
(0.997338 -0.000482461 0)
(1.00175 -0.000940166 0)
(1.00181 -0.00330183 0)
(1.00194 -0.00521759 0)
(1.00205 -0.00726651 0)
(1.00214 -0.0091603 0)
(1.00214 -0.0109469 0)
(1.00205 -0.0125381 0)
(1.00182 -0.0138843 0)
(1.00147 -0.0149389 0)
(1.00101 -0.0156813 0)
(1.00045 -0.0160967 0)
(0.999869 -0.0161818 0)
(0.999309 -0.0159603 0)
(0.998766 -0.0154877 0)
(0.998144 -0.0149477 0)
(0.997359 -0.0146175 0)
(0.99642 -0.0145719 0)
(0.995304 -0.0146107 0)
(0.993687 -0.0144812 0)
(0.991019 -0.0139554 0)
(0.987457 -0.0128955 0)
(0.984761 -0.0115203 0)
(0.984777 -0.0102429 0)
(0.986981 -0.00915148 0)
(0.989453 -0.00819934 0)
(0.991187 -0.00740787 0)
(0.992171 -0.00676592 0)
(0.992667 -0.00624609 0)
(0.99289 -0.00582305 0)
(1.00319 -0.00127463 0)
(1.00331 -0.00445822 0)
(1.00354 -0.00705653 0)
(1.00376 -0.00986296 0)
(1.00393 -0.0124831 0)
(1.00397 -0.0149995 0)
(1.00383 -0.0172908 0)
(1.00348 -0.0192891 0)
(1.0029 -0.020912 0)
(1.00212 -0.0221061 0)
(1.00119 -0.0228365 0)
(1.00016 -0.0231051 0)
(0.999055 -0.0230059 0)
(0.997912 -0.022682 0)
(0.996772 -0.0221959 0)
(0.995713 -0.021361 0)
(0.994764 -0.0199429 0)
(0.993905 -0.0180718 0)
(0.993461 -0.016086 0)
(0.994331 -0.0142646 0)
(0.996963 -0.0128352 0)
(0.999626 -0.0118354 0)
(0.999755 -0.0109971 0)
(0.997316 -0.0102109 0)
(0.994339 -0.00954469 0)
(0.992092 -0.00895441 0)
(0.99066 -0.00840209 0)
(0.98978 -0.00788291 0)
(0.989226 -0.00739926 0)
(1.00472 -0.00156565 0)
(1.00492 -0.00545868 0)
(1.00528 -0.00865454 0)
(1.00563 -0.0121362 0)
(1.00593 -0.01542 0)
(1.00605 -0.0186271 0)
(1.00592 -0.0216057 0)
(1.00547 -0.0242709 0)
(1.00467 -0.0265077 0)
(1.00353 -0.0282388 0)
(1.0021 -0.0294301 0)
(1.00043 -0.0300881 0)
(0.998632 -0.0302587 0)
(0.996838 -0.0299685 0)
(0.995149 -0.0292464 0)
(0.993545 -0.0283032 0)
(0.991844 -0.0275498 0)
(0.989805 -0.0271671 0)
(0.98712 -0.0268898 0)
(0.983447 -0.0263195 0)
(0.979001 -0.0251914 0)
(0.975323 -0.0234772 0)
(0.974428 -0.0215718 0)
(0.976195 -0.0198183 0)
(0.978535 -0.018184 0)
(0.980131 -0.0167034 0)
(0.980942 -0.0154214 0)
(0.981267 -0.0143275 0)
(0.981335 -0.013402 0)
(1.00631 -0.00181172 0)
(1.00659 -0.00629867 0)
(1.00709 -0.0100014 0)
(1.00762 -0.0140658 0)
(1.00809 -0.017937 0)
(1.00834 -0.0217791 0)
(1.00827 -0.0254195 0)
(1.00776 -0.0287678 0)
(1.00676 -0.0316875 0)
(1.00527 -0.0340747 0)
(1.00335 -0.0358544 0)
(1.00111 -0.0369743 0)
(0.998718 -0.0374115 0)
(0.996291 -0.0371947 0)
(0.993895 -0.0364492 0)
(0.991571 -0.0352992 0)
(0.989377 -0.0336686 0)
(0.987318 -0.0314242 0)
(0.985464 -0.0288005 0)
(0.984407 -0.0263334 0)
(0.984895 -0.0243948 0)
(0.986132 -0.0230918 0)
(0.985762 -0.0220915 0)
(0.983029 -0.0210159 0)
(0.979695 -0.0199678 0)
(0.97723 -0.0190039 0)
(0.975704 -0.0180797 0)
(0.974769 -0.0172034 0)
(0.974165 -0.0163864 0)
(1.00795 -0.00201888 0)
(1.00832 -0.00700024 0)
(1.00898 -0.0111309 0)
(1.0097 -0.0156964 0)
(1.01038 -0.0200866 0)
(1.01082 -0.0245139 0)
(1.01087 -0.0287947 0)
(1.01038 -0.0328398 0)
(1.00928 -0.0364866 0)
(1.00754 -0.0395886 0)
(1.00524 -0.0420127 0)
(1.00248 -0.043666 0)
(0.999383 -0.0445262 0)
(0.996081 -0.0446227 0)
(0.992701 -0.044002 0)
(0.989377 -0.0427419 0)
(0.986155 -0.0411302 0)
(0.982936 -0.0396285 0)
(0.979564 -0.0384795 0)
(0.975716 -0.0374946 0)
(0.970983 -0.0362549 0)
(0.965987 -0.0344445 0)
(0.96286 -0.0322387 0)
(0.962703 -0.030083 0)
(0.963907 -0.027997 0)
(0.964741 -0.0259607 0)
(0.96497 -0.0241023 0)
(0.964876 -0.0224587 0)
(0.964651 -0.0210295 0)
(1.0096 -0.00219383 0)
(1.01008 -0.00758832 0)
(1.0109 -0.0120826 0)
(1.01183 -0.0170818 0)
(1.01276 -0.021934 0)
(1.01343 -0.0269034 0)
(1.01368 -0.0318024 0)
(1.0133 -0.0365487 0)
(1.01219 -0.040959 0)
(1.01028 -0.0448613 0)
(1.00758 -0.0480947 0)
(1.00417 -0.0505408 0)
(1.00019 -0.0521344 0)
(0.995848 -0.0528401 0)
(0.991331 -0.0526656 0)
(0.986796 -0.0516926 0)
(0.98243 -0.0500339 0)
(0.978526 -0.0476408 0)
(0.975386 -0.044479 0)
(0.973332 -0.0409794 0)
(0.972692 -0.0378 0)
(0.972976 -0.0353969 0)
(0.972067 -0.0336339 0)
(0.968492 -0.0319673 0)
(0.963766 -0.0303617 0)
(0.960018 -0.0289428 0)
(0.957567 -0.0276026 0)
(0.955943 -0.0263158 0)
(0.954807 -0.0251004 0)
(1.01123 -0.00234124 0)
(1.01182 -0.00808046 0)
(1.0128 -0.0128841 0)
(1.01397 -0.0182592 0)
(1.01516 -0.0235227 0)
(1.01612 -0.0289926 0)
(1.01662 -0.034486 0)
(1.01644 -0.0399393 0)
(1.01541 -0.0451676 0)
(1.01339 -0.0499915 0)
(1.01037 -0.0542193 0)
(1.00643 -0.0576712 0)
(1.00175 -0.0601956 0)
(0.996543 -0.0617031 0)
(0.991019 -0.0621935 0)
(0.985357 -0.0616888 0)
(0.979804 -0.0603244 0)
(0.974613 -0.0585533 0)
(0.969833 -0.0569033 0)
(0.965111 -0.0554526 0)
(0.959661 -0.0537772 0)
(0.953361 -0.0513879 0)
(0.94807 -0.0483192 0)
(0.945902 -0.0452268 0)
(0.945974 -0.0423338 0)
(0.945979 -0.0394919 0)
(0.945353 -0.0368622 0)
(0.944499 -0.0345318 0)
(0.943648 -0.0324912 0)
(1.0128 -0.00246424 0)
(1.01349 -0.00848818 0)
(1.01465 -0.0135528 0)
(1.01605 -0.0192508 0)
(1.01753 -0.0248765 0)
(1.0188 -0.0308028 0)
(1.01963 -0.03686 0)
(1.01973 -0.0430137 0)
(1.01888 -0.0490865 0)
(1.01693 -0.0548903 0)
(1.01382 -0.060192 0)
(1.0096 -0.0647571 0)
(1.00442 -0.0683883 0)
(0.998425 -0.0709603 0)
(0.991843 -0.0724432 0)
(0.984913 -0.0728454 0)
(0.977926 -0.0722241 0)
(0.97133 -0.0706253 0)
(0.965644 -0.0678825 0)
(0.961236 -0.0640101 0)
(0.958399 -0.0596869 0)
(0.957079 -0.0558791 0)
(0.955501 -0.0530071 0)
(0.95127 -0.0504887 0)
(0.945056 -0.0479827 0)
(0.939687 -0.0457611 0)
(0.936047 -0.0437327 0)
(0.933499 -0.0417888 0)
(0.931596 -0.0399637 0)
(1.01428 -0.00256544 0)
(1.01507 -0.00882066 0)
(1.0164 -0.0141019 0)
(1.01804 -0.0200726 0)
(1.01981 -0.0260108 0)
(1.02144 -0.0323432 0)
(1.02263 -0.0389189 0)
(1.0231 -0.0457361 0)
(1.02258 -0.05263 0)
(1.02086 -0.0594133 0)
(1.01783 -0.0658381 0)
(1.01344 -0.0716515 0)
(1.00778 -0.0766249 0)
(1.00101 -0.0805623 0)
(0.9934 -0.08334 0)
(0.985263 -0.0848921 0)
(0.976962 -0.0851873 0)
(0.9689 -0.0843773 0)
(0.961327 -0.0829591 0)
(0.954081 -0.0814722 0)
(0.946552 -0.0798175 0)
(0.938222 -0.0772828 0)
(0.930292 -0.0735115 0)
(0.925506 -0.0692959 0)
(0.924135 -0.0653769 0)
(0.923319 -0.0615582 0)
(0.921708 -0.057927 0)
(0.919878 -0.0547017 0)
(0.918184 -0.0518606 0)
(1.01567 -0.00264743 0)
(1.01655 -0.00908673 0)
(1.01805 -0.0145441 0)
(1.01992 -0.0207401 0)
(1.022 -0.0269402 0)
(1.02399 -0.0336228 0)
(1.0256 -0.0406576 0)
(1.0265 -0.0480792 0)
(1.0264 -0.055747 0)
(1.02502 -0.0634961 0)
(1.02216 -0.0710883 0)
(1.01774 -0.078255 0)
(1.0118 -0.0847108 0)
(1.00451 -0.0901666 0)
(0.996138 -0.094398 0)
(0.986983 -0.0972764 0)
(0.977389 -0.0987503 0)
(0.967761 -0.0988236 0)
(0.958643 -0.0973852 0)
(0.950644 -0.0942338 0)
(0.944292 -0.0896591 0)
(0.939961 -0.0848273 0)
(0.936665 -0.0809438 0)
(0.931499 -0.0777547 0)
(0.923595 -0.0743949 0)
(0.916014 -0.0711701 0)
(0.910737 -0.0682645 0)
(0.906985 -0.065441 0)
(0.90407 -0.0627643 0)
(1.01695 -0.00271287 0)
(1.01793 -0.00929538 0)
(1.01958 -0.0148928 0)
(1.02168 -0.0212703 0)
(1.02407 -0.0276829 0)
(1.02643 -0.0346575 0)
(1.02848 -0.0420862 0)
(1.02986 -0.0500431 0)
(1.03024 -0.0584233 0)
(1.02931 -0.0670956 0)
(1.0268 -0.0758335 0)
(1.02259 -0.0843493 0)
(1.01669 -0.0923131 0)
(1.00917 -0.0993862 0)
(1.00022 -0.105283 0)
(0.990082 -0.109803 0)
(0.979143 -0.112804 0)
(0.967875 -0.114215 0)
(0.956756 -0.114218 0)
(0.945959 -0.113489 0)
(0.93517 -0.112504 0)
(0.923817 -0.11068 0)
(0.912362 -0.106991 0)
(0.903596 -0.101819 0)
(0.899473 -0.096675 0)
(0.897335 -0.091791 0)
(0.894387 -0.0869424 0)
(0.89113 -0.0825524 0)
(0.888226 -0.0786713 0)
(1.01813 -0.00276443 0)
(1.01919 -0.00945564 0)
(1.021 -0.0151617 0)
(1.02332 -0.0216816 0)
(1.026 -0.0282608 0)
(1.02874 -0.0354713 0)
(1.03123 -0.0432276 0)
(1.03312 -0.0516439 0)
(1.03406 -0.0606544 0)
(1.03369 -0.0701641 0)
(1.03171 -0.079964 0)
(1.02794 -0.089773 0)
(1.02227 -0.0992586 0)
(1.01467 -0.108062 0)
(1.00528 -0.115831 0)
(0.99433 -0.122245 0)
(0.98224 -0.127051 0)
(0.969503 -0.130082 0)
(0.956682 -0.1312 0)
(0.944442 -0.130113 0)
(0.933523 -0.126634 0)
(0.924653 -0.121531 0)
(0.917893 -0.116646 0)
(0.910847 -0.112898 0)
(0.900876 -0.10906 0)
(0.89008 -0.10477 0)
(0.882071 -0.100783 0)
(0.876467 -0.0968814 0)
(0.872026 -0.093052 0)
(1.01921 -0.00280465 0)
(1.02035 -0.00957621 0)
(1.0223 -0.0153646 0)
(1.02483 -0.0219932 0)
(1.02779 -0.028698 0)
(1.03089 -0.0360925 0)
(1.03383 -0.0441115 0)
(1.03625 -0.0529068 0)
(1.03779 -0.0624521 0)
(1.03806 -0.0726938 0)
(1.03672 -0.0834586 0)
(1.0335 -0.0944972 0)
(1.02819 -0.105491 0)
(1.02073 -0.116057 0)
(1.01118 -0.125776 0)
(0.999751 -0.134235 0)
(0.986777 -0.141099 0)
(0.972717 -0.146135 0)
(0.958092 -0.149217 0)
(0.943277 -0.150647 0)
(0.928272 -0.151207 0)
(0.912797 -0.150987 0)
(0.896847 -0.148656 0)
(0.882524 -0.143317 0)
(0.873391 -0.136748 0)
(0.868619 -0.130567 0)
(0.86379 -0.124297 0)
(0.858339 -0.118298 0)
(0.853568 -0.112985 0)
(1.02019 -0.00283582 0)
(1.02141 -0.00966493 0)
(1.02349 -0.0155139 0)
(1.02621 -0.0222231 0)
(1.02944 -0.0290181 0)
(1.03289 -0.0365506 0)
(1.03626 -0.044772 0)
(1.03921 -0.0538683 0)
(1.04136 -0.0638545 0)
(1.04231 -0.074725 0)
(1.04166 -0.0863532 0)
(1.03909 -0.0985269 0)
(1.03434 -0.110942 0)
(1.0273 -0.123208 0)
(1.01793 -0.134882 0)
(1.00632 -0.145517 0)
(0.992722 -0.15472 0)
(0.977568 -0.162164 0)
(0.961392 -0.167516 0)
(0.944794 -0.170325 0)
(0.928634 -0.169964 0)
(0.913944 -0.166313 0)
(0.901655 -0.161035 0)
(0.890986 -0.156697 0)
(0.878363 -0.152931 0)
(0.863304 -0.147886 0)
(0.850625 -0.142496 0)
(0.841865 -0.137272 0)
(0.834985 -0.131871 0)
(1.02109 -0.00285984 0)
(1.02237 -0.00972843 0)
(1.02458 -0.0156205 0)
(1.02748 -0.0223872 0)
(1.03096 -0.029243 0)
(1.03473 -0.0368741 0)
(1.03852 -0.0452447 0)
(1.04198 -0.0545721 0)
(1.04474 -0.0649133 0)
(1.04638 -0.0763109 0)
(1.04648 -0.0886852 0)
(1.04468 -0.101862 0)
(1.04069 -0.115565 0)
(1.03429 -0.129429 0)
(1.02535 -0.14303 0)
(1.01384 -0.155906 0)
(0.999963 -0.167595 0)
(0.984107 -0.177668 0)
(0.966699 -0.185683 0)
(0.948091 -0.191358 0)
(0.928494 -0.195167 0)
(0.907926 -0.197922 0)
(0.886445 -0.1988 0)
(0.865166 -0.19539 0)
(0.84812 -0.188067 0)
(0.837902 -0.18027 0)
(0.830115 -0.172559 0)
(0.821352 -0.164445 0)
(0.813424 -0.15702 0)
(1.02192 -0.00287821 0)
(1.02326 -0.00977211 0)
(1.02558 -0.0156935 0)
(1.02864 -0.0224992 0)
(1.03235 -0.029392 0)
(1.03643 -0.0370894 0)
(1.0406 -0.0455639 0)
(1.04455 -0.0550617 0)
(1.04791 -0.065679 0)
(1.05024 -0.0775029 0)
(1.05113 -0.0904991 0)
(1.05019 -0.104539 0)
(1.04706 -0.11939 0)
(1.04144 -0.134733 0)
(1.03313 -0.150169 0)
(1.02203 -0.165235 0)
(1.00827 -0.179442 0)
(0.99211 -0.19233 0)
(0.973835 -0.203421 0)
(0.953748 -0.21212 0)
(0.932507 -0.217539 0)
(0.911384 -0.218536 0)
(0.891847 -0.21525 0)
(0.87488 -0.210819 0)
(0.858128 -0.207757 0)
(0.837947 -0.203399 0)
(0.817823 -0.196692 0)
(0.803128 -0.18981 0)
(0.792098 -0.182449 0)
(1.02267 -0.00289207 0)
(1.02407 -0.0098003 0)
(1.02649 -0.0157403 0)
(1.0297 -0.0225701 0)
(1.03363 -0.0294815 0)
(1.03798 -0.0372193 0)
(1.04251 -0.0457598 0)
(1.04693 -0.0553761 0)
(1.05086 -0.0661986 0)
(1.05388 -0.0783556 0)
(1.05557 -0.091859 0)
(1.0555 -0.106631 0)
(1.05327 -0.122492 0)
(1.04854 -0.13916 0)
(1.04105 -0.156273 0)
(1.03066 -0.173397 0)
(1.01738 -0.190067 0)
(1.00134 -0.205813 0)
(0.982739 -0.220116 0)
(0.961686 -0.23232 0)
(0.93829 -0.242005 0)
(0.912658 -0.249824 0)
(0.885041 -0.256285 0)
(0.856045 -0.25878 0)
(0.828361 -0.253972 0)
(0.807808 -0.244921 0)
(0.794189 -0.235916 0)
(0.780593 -0.225804 0)
(0.76708 -0.215392 0)
(1.02336 -0.00290235 0)
(1.0248 -0.00981649 0)
(1.02733 -0.0157671 0)
(1.03067 -0.0226093 0)
(1.03479 -0.0295252 0)
(1.03939 -0.0372831 0)
(1.04426 -0.0458589 0)
(1.04911 -0.0555502 0)
(1.05358 -0.0665179 0)
(1.05727 -0.0789281 0)
(1.05973 -0.092839 0)
(1.06052 -0.108223 0)
(1.05922 -0.124945 0)
(1.05548 -0.142765 0)
(1.04898 -0.161366 0)
(1.03952 -0.180369 0)
(1.02703 -0.199353 0)
(1.01155 -0.217874 0)
(0.993137 -0.23546 0)
(0.971701 -0.251508 0)
(0.947241 -0.265072 0)
(0.920571 -0.274554 0)
(0.893454 -0.278047 0)
(0.867714 -0.276434 0)
(0.843965 -0.274948 0)
(0.817942 -0.274015 0)
(0.787869 -0.26831 0)
(0.762023 -0.259716 0)
(0.743366 -0.250449 0)
(1.02398 -0.00290977 0)
(1.02547 -0.00982349 0)
(1.02808 -0.0157786 0)
(1.03154 -0.0226243 0)
(1.03584 -0.0295341 0)
(1.04067 -0.0372966 0)
(1.04585 -0.0458834 0)
(1.0511 -0.0556152 0)
(1.05608 -0.066679 0)
(1.06039 -0.0792756 0)
(1.06359 -0.0935057 0)
(1.06523 -0.109386 0)
(1.0649 -0.126824 0)
(1.06219 -0.145625 0)
(1.05677 -0.16552 0)
(1.04839 -0.186187 0)
(1.03693 -0.207266 0)
(1.02238 -0.228374 0)
(1.00467 -0.249126 0)
(0.983549 -0.268979 0)
(0.958647 -0.287051 0)
(0.929772 -0.302875 0)
(0.897038 -0.317497 0)
(0.860766 -0.330449 0)
(0.821781 -0.335489 0)
(0.785457 -0.329251 0)
(0.759201 -0.319388 0)
(0.738226 -0.308857 0)
(0.715838 -0.2953 0)
(1.02455 -0.00291495 0)
(1.02608 -0.0098236 0)
(1.02877 -0.0157789 0)
(1.03233 -0.0226213 0)
(1.03679 -0.0295176 0)
(1.04182 -0.0372731 0)
(1.04728 -0.0458523 0)
(1.0529 -0.0555981 0)
(1.05835 -0.0667185 0)
(1.06324 -0.0794451 0)
(1.06715 -0.0939166 0)
(1.06963 -0.110191 0)
(1.07025 -0.128215 0)
(1.06859 -0.147839 0)
(1.06427 -0.16884 0)
(1.05705 -0.190941 0)
(1.0468 -0.21385 0)
(1.03348 -0.237281 0)
(1.01693 -0.260961 0)
(0.996724 -0.284521 0)
(0.972243 -0.307245 0)
(0.943284 -0.327805 0)
(0.910946 -0.343663 0)
(0.876959 -0.351748 0)
(0.843103 -0.354431 0)
(0.809119 -0.359471 0)
(0.76883 -0.361738 0)
(0.725243 -0.354039 0)
(0.691212 -0.343271 0)
(1.02505 -0.00291837 0)
(1.02662 -0.00981865 0)
(1.02938 -0.0157712 0)
(1.03303 -0.0226053 0)
(1.03765 -0.0294829 0)
(1.04286 -0.0372229 0)
(1.04857 -0.045781 0)
(1.05452 -0.0555205 0)
(1.0604 -0.0666661 0)
(1.06584 -0.0794758 0)
(1.07042 -0.0941228 0)
(1.0737 -0.110703 0)
(1.07523 -0.129202 0)
(1.07458 -0.149508 0)
(1.07138 -0.171433 0)
(1.06536 -0.19474 0)
(1.05642 -0.219201 0)
(1.04453 -0.24464 0)
(1.02951 -0.270922 0)
(1.01077 -0.297828 0)
(0.987579 -0.324826 0)
(0.9592 -0.350991 0)
(0.924936 -0.37619 0)
(0.884488 -0.40226 0)
(0.837432 -0.426701 0)
(0.784045 -0.436433 0)
(0.734542 -0.429398 0)
(0.698066 -0.420156 0)
(0.663809 -0.40662 0)
(1.0255 -0.00292043 0)
(1.0271 -0.00981013 0)
(1.02993 -0.0157577 0)
(1.03366 -0.0225804 0)
(1.03841 -0.0294359 0)
(1.04378 -0.0371547 0)
(1.04972 -0.0456822 0)
(1.05597 -0.0554005 0)
(1.06225 -0.0665466 0)
(1.06819 -0.0794027 0)
(1.0734 -0.0941722 0)
(1.07742 -0.110986 0)
(1.07981 -0.129864 0)
(1.08013 -0.150724 0)
(1.07802 -0.173409 0)
(1.07321 -0.197713 0)
(1.06562 -0.223458 0)
(1.05529 -0.250573 0)
(1.04205 -0.279074 0)
(1.0252 -0.308893 0)
(1.00387 -0.339813 0)
(0.977287 -0.371402 0)
(0.944902 -0.402142 0)
(0.907241 -0.427936 0)
(0.865154 -0.443951 0)
(0.820365 -0.456195 0)
(0.770642 -0.474893 0)
(0.70719 -0.481706 0)
(0.6428 -0.470572 0)
(1.02591 -0.00292145 0)
(1.02754 -0.00979922 0)
(1.03041 -0.0157405 0)
(1.03422 -0.0225495 0)
(1.03908 -0.0293814 0)
(1.04459 -0.037075 0)
(1.05075 -0.0455656 0)
(1.05727 -0.0552523 0)
(1.0639 -0.0663805 0)
(1.07031 -0.0792547 0)
(1.07608 -0.0941047 0)
(1.08079 -0.111092 0)
(1.08399 -0.130267 0)
(1.08524 -0.151571 0)
(1.08418 -0.17487 0)
(1.08055 -0.199985 0)
(1.0743 -0.226773 0)
(1.06554 -0.255241 0)
(1.0542 -0.285555 0)
(1.03955 -0.317819 0)
(1.02059 -0.351995 0)
(0.996734 -0.388047 0)
(0.966787 -0.425517 0)
(0.928 -0.464789 0)
(0.879493 -0.510147 0)
(0.819563 -0.556466 0)
(0.743642 -0.575938 0)
(0.669326 -0.569591 0)
(0.612676 -0.561634 0)
(1.02627 -0.00292168 0)
(1.02792 -0.00978689 0)
(1.03085 -0.015721 0)
(1.03472 -0.0225152 0)
(1.03968 -0.029323 0)
(1.04532 -0.0369893 0)
(1.05166 -0.0454394 0)
(1.05842 -0.0550877 0)
(1.06538 -0.0661852 0)
(1.0722 -0.0790564 0)
(1.07849 -0.0939539 0)
(1.08383 -0.111066 0)
(1.08778 -0.130468 0)
(1.0899 -0.152124 0)
(1.08983 -0.175917 0)
(1.08732 -0.201681 0)
(1.08236 -0.229302 0)
(1.07514 -0.258838 0)
(1.06571 -0.290566 0)
(1.05342 -0.324779 0)
(1.03719 -0.361606 0)
(1.01641 -0.401406 0)
(0.990457 -0.444857 0)
(0.957338 -0.490576 0)
(0.915349 -0.531628 0)
(0.864155 -0.560395 0)
(0.805827 -0.59462 0)
(0.728658 -0.645533 0)
(0.617782 -0.655535 0)
(1.02659 -0.00292133 0)
(1.02826 -0.00977384 0)
(1.03123 -0.0157003 0)
(1.03516 -0.0224794 0)
(1.04022 -0.0292632 0)
(1.04596 -0.0369013 0)
(1.05247 -0.0453097 0)
(1.05944 -0.0549155 0)
(1.06668 -0.0659737 0)
(1.07387 -0.0788265 0)
(1.08064 -0.0937458 0)
(1.08656 -0.110944 0)
(1.0912 -0.130517 0)
(1.09412 -0.152449 0)
(1.09496 -0.176633 0)
(1.09348 -0.202911 0)
(1.08974 -0.231184 0)
(1.08401 -0.261547 0)
(1.0764 -0.294333 0)
(1.06646 -0.329998 0)
(1.05322 -0.368914 0)
(1.03589 -0.411498 0)
(1.01453 -0.458864 0)
(0.987149 -0.512003 0)
(0.946044 -0.571801 0)
(0.890606 -0.649414 0)
(0.821436 -0.744075 0)
(0.705356 -0.792742 0)
(0.558692 -0.785424 0)
(1.02687 -0.00292056 0)
(1.02857 -0.00976066 0)
(1.03157 -0.0156794 0)
(1.03555 -0.0224434 0)
(1.04068 -0.0292041 0)
(1.04653 -0.0368143 0)
(1.05318 -0.045181 0)
(1.06034 -0.0547428 0)
(1.06784 -0.0657565 0)
(1.07536 -0.0785803 0)
(1.08255 -0.0935024 0)
(1.089 -0.110756 0)
(1.09426 -0.130457 0)
(1.09791 -0.152603 0)
(1.09958 -0.177096 0)
(1.09906 -0.203776 0)
(1.09644 -0.23255 0)
(1.0921 -0.263541 0)
(1.08621 -0.297104 0)
(1.07845 -0.333768 0)
(1.06822 -0.374186 0)
(1.05469 -0.418893 0)
(1.03756 -0.46898 0)
(1.01703 -0.52788 0)
(0.989737 -0.596566 0)
(0.949087 -0.66031 0)
(0.889506 -0.706367 0)
(0.816665 -0.800078 0)
(0.669618 -0.936523 0)
(1.02712 -0.00291951 0)
(1.02884 -0.00974774 0)
(1.03187 -0.0156588 0)
(1.0359 -0.0224083 0)
(1.04109 -0.0291472 0)
(1.04703 -0.0367302 0)
(1.0538 -0.0450567 0)
(1.06113 -0.0545743 0)
(1.06885 -0.0655411 0)
(1.07667 -0.078329 0)
(1.08424 -0.0932401 0)
(1.09116 -0.110526 0)
(1.09698 -0.130319 0)
(1.10129 -0.15263 0)
(1.10372 -0.177364 0)
(1.10405 -0.204356 0)
(1.10245 -0.23351 0)
(1.09938 -0.264961 0)
(1.09509 -0.299081 0)
(1.08931 -0.336387 0)
(1.08184 -0.377728 0)
(1.07221 -0.423961 0)
(1.05962 -0.475787 0)
(1.04578 -0.536598 0)
(1.02994 -0.610727 0)
(0.994364 -0.694586 0)
(0.938968 -0.818048 0)
(0.878019 -1.03388 0)
(0.635321 -1.118 0)
(0.99969 -0.00239609 0)
(0.999969 -0.00229265 0)
(1.00014 -0.00219002 0)
(1.00022 -0.0020873 0)
(1.00019 -0.00198309 0)
(1.00003 -0.00187548 0)
(0.999731 -0.00176227 0)
(0.999252 -0.0016412 0)
(0.998559 -0.00151012 0)
(0.99762 -0.0013673 0)
(0.99641 -0.00121184 0)
(0.994924 -0.00104396 0)
(0.993182 -0.00086537 0)
(0.991239 -0.000679304 0)
(0.989184 -0.000490434 0)
(0.987144 -0.000304419 0)
(0.985266 -0.000127236 0)
(0.983707 3.56484e-05 0)
(0.982612 0.000180098 0)
(0.996961 -0.000279268 0)
(0.99671 -7.26344e-05 0)
(0.996536 0.000144894 0)
(0.996424 0.000369977 0)
(0.99637 0.000600213 0)
(0.996381 0.000832491 0)
(0.996477 0.00106294 0)
(0.996691 0.00128697 0)
(0.997064 0.00149933 0)
(0.997645 0.00169438 0)
(0.998484 0.00186661 0)
(0.999621 0.00201131 0)
(1.00107 0.00212539 0)
(1.00283 0.00220818 0)
(1.00483 0.00226196 0)
(1.00697 0.00229215 0)
(1.00909 0.00230697 0)
(1.01103 0.00231652 0)
(1.01259 0.00233153 0)
(0.992971 -0.00547142 0)
(0.992979 -0.005149 0)
(0.992937 -0.00482671 0)
(0.992856 -0.00450399 0)
(0.992741 -0.00418112 0)
(0.992593 -0.00385791 0)
(0.992406 -0.00353397 0)
(0.992167 -0.0032086 0)
(0.991859 -0.00288053 0)
(0.991456 -0.00254782 0)
(0.990931 -0.0022079 0)
(0.990253 -0.00185783 0)
(0.989401 -0.00149469 0)
(0.988366 -0.0011162 0)
(0.987161 -0.000721251 0)
(0.985833 -0.000310393 0)
(0.984458 0.000114067 0)
(0.983144 0.000548306 0)
(0.982014 0.000987602 0)
(0.98886 -0.00695523 0)
(0.988589 -0.00652742 0)
(0.988376 -0.00609178 0)
(0.988215 -0.00565008 0)
(0.988106 -0.00520226 0)
(0.988058 -0.00474868 0)
(0.988086 -0.00429018 0)
(0.988212 -0.00382802 0)
(0.988462 -0.00336384 0)
(0.988868 -0.00289964 0)
(0.989464 -0.00243753 0)
(0.990277 -0.00197943 0)
(0.991327 -0.00152667 0)
(0.99261 -0.00107951 0)
(0.994096 -0.000636838 0)
(0.995716 -0.000196113 0)
(0.997364 0.000246328 0)
(0.998905 0.000694499 0)
(1.00019 0.00115174 0)
(0.981281 -0.0126133 0)
(0.981164 -0.0118819 0)
(0.981002 -0.0111486 0)
(0.98081 -0.0104134 0)
(0.980598 -0.00967676 0)
(0.980373 -0.00893829 0)
(0.980139 -0.00819732 0)
(0.979892 -0.00745299 0)
(0.979621 -0.0067041 0)
(0.979309 -0.0059492 0)
(0.978927 -0.0051868 0)
(0.978443 -0.00441568 0)
(0.977822 -0.00363541 0)
(0.977032 -0.0028469 0)
(0.976064 -0.00205273 0)
(0.974933 -0.00125726 0)
(0.973695 -0.000466028 0)
(0.972445 0.000315411 0)
(0.971313 0.00108317 0)
(0.973746 -0.0156368 0)
(0.973417 -0.0149167 0)
(0.973135 -0.0141868 0)
(0.972893 -0.0134505 0)
(0.97269 -0.0127072 0)
(0.972529 -0.0119562 0)
(0.97242 -0.0111964 0)
(0.972378 -0.0104266 0)
(0.972422 -0.00964465 0)
(0.972578 -0.00884824 0)
(0.972876 -0.00803437 0)
(0.973349 -0.00719925 0)
(0.974028 -0.00633799 0)
(0.974934 -0.00544439 0)
(0.976066 -0.00451087 0)
(0.977387 -0.00352891 0)
(0.978816 -0.00249026 0)
(0.980223 -0.0013891 0)
(0.981441 -0.000224696 0)
(0.964388 -0.0197869 0)
(0.964107 -0.0186158 0)
(0.963804 -0.0174238 0)
(0.963484 -0.0162128 0)
(0.96315 -0.0149853 0)
(0.962801 -0.013742 0)
(0.96243 -0.0124833 0)
(0.962029 -0.0112093 0)
(0.961579 -0.00991995 0)
(0.961057 -0.00861499 0)
(0.960427 -0.0072946 0)
(0.959648 -0.00595996 0)
(0.958672 -0.004614 0)
(0.957455 -0.00326238 0)
(0.955973 -0.00191417 0)
(0.954237 -0.000581933 0)
(0.952318 0.00071939 0)
(0.950353 0.00197511 0)
(0.948545 0.00317476 0)
(0.953965 -0.0239691 0)
(0.953267 -0.0228689 0)
(0.952639 -0.0217414 0)
(0.952064 -0.0205922 0)
(0.951535 -0.0194219 0)
(0.951049 -0.0182314 0)
(0.950607 -0.0170218 0)
(0.950216 -0.0157942 0)
(0.949889 -0.0145495 0)
(0.94965 -0.0132882 0)
(0.949533 -0.0120107 0)
(0.949583 -0.0107161 0)
(0.949858 -0.00940197 0)
(0.950414 -0.00806296 0)
(0.951296 -0.00668984 0)
(0.952513 -0.00526888 0)
(0.954011 -0.00378261 0)
(0.955655 -0.00221265 0)
(0.957224 -0.000544923 0)
(0.942872 -0.0307059 0)
(0.942143 -0.0290129 0)
(0.941423 -0.0272798 0)
(0.940718 -0.0255091 0)
(0.940029 -0.0237045 0)
(0.939355 -0.0218679 0)
(0.938688 -0.0200011 0)
(0.938019 -0.018106 0)
(0.93733 -0.0161842 0)
(0.936597 -0.0142374 0)
(0.935781 -0.0122672 0)
(0.93483 -0.0102754 0)
(0.933678 -0.0082655 0)
(0.93225 -0.00624321 0)
(0.930476 -0.0042186 0)
(0.92832 -0.00220728 0)
(0.925813 -0.000230593 0)
(0.923093 0.00168697 0)
(0.920421 0.0035236 0)
(0.930114 -0.0382698 0)
(0.928841 -0.0366208 0)
(0.927659 -0.0349248 0)
(0.926554 -0.0331892 0)
(0.925518 -0.0314154 0)
(0.924547 -0.0296052 0)
(0.923639 -0.0277614 0)
(0.922799 -0.0258867 0)
(0.922035 -0.023984 0)
(0.921364 -0.0220562 0)
(0.920816 -0.0201066 0)
(0.920436 -0.018138 0)
(0.920291 -0.016152 0)
(0.920462 -0.0141481 0)
(0.921037 -0.0121209 0)
(0.922082 -0.010058 0)
(0.923597 -0.00793819 0)
(0.925469 -0.00573297 0)
(0.927439 -0.00341267 0)
(0.916684 -0.049358 0)
(0.915297 -0.0469751 0)
(0.913944 -0.0445291 0)
(0.912635 -0.042024 0)
(0.911376 -0.0394631 0)
(0.910169 -0.0368478 0)
(0.90901 -0.0341795 0)
(0.907896 -0.0314602 0)
(0.906813 -0.0286918 0)
(0.905744 -0.0258769 0)
(0.904658 -0.0230181 0)
(0.903507 -0.0201186 0)
(0.90222 -0.0171825 0)
(0.900702 -0.0142162 0)
(0.898842 -0.0112306 0)
(0.896533 -0.00824432 0)
(0.893725 -0.00528666 0)
(0.890492 -0.00239744 0)
(0.887099 0.000379482 0)
(0.901742 -0.0602786 0)
(0.899704 -0.0578469 0)
(0.897783 -0.055331 0)
(0.895966 -0.0527434 0)
(0.894247 -0.05009 0)
(0.892624 -0.0473777 0)
(0.891097 -0.0446143 0)
(0.889671 -0.0418077 0)
(0.888352 -0.0389663 0)
(0.887156 -0.0360981 0)
(0.886106 -0.0332112 0)
(0.885243 -0.0303133 0)
(0.884629 -0.0274113 0)
(0.884359 -0.0245099 0)
(0.884551 -0.0216093 0)
(0.885333 -0.0187004 0)
(0.886792 -0.0157598 0)
(0.88889 -0.0127462 0)
(0.891374 -0.00960439 0)
(0.88569 -0.0752121 0)
(0.883365 -0.0719011 0)
(0.881117 -0.0684909 0)
(0.878964 -0.0649914 0)
(0.876919 -0.0614072 0)
(0.874988 -0.0577409 0)
(0.873176 -0.0539949 0)
(0.871483 -0.0501722 0)
(0.869904 -0.046276 0)
(0.868427 -0.04231 0)
(0.867031 -0.0382783 0)
(0.865676 -0.0341857 0)
(0.8643 -0.0300374 0)
(0.862804 -0.0258402 0)
(0.861048 -0.0216051 0)
(0.858857 -0.0173516 0)
(0.856066 -0.0131154 0)
(0.852612 -0.00895445 0)
(0.848674 -0.00494719 0)
(0.86845 -0.0894673 0)
(0.865318 -0.0859215 0)
(0.862369 -0.0822159 0)
(0.859594 -0.0783768 0)
(0.85699 -0.0744217 0)
(0.854559 -0.0703703 0)
(0.852303 -0.0662431 0)
(0.850227 -0.0620615 0)
(0.848338 -0.057847 0)
(0.846644 -0.0536207 0)
(0.845163 -0.0494033 0)
(0.843923 -0.0452139 0)
(0.842971 -0.0410705 0)
(0.842391 -0.0369878 0)
(0.842311 -0.0329755 0)
(0.842906 -0.0290323 0)
(0.844366 -0.0251362 0)
(0.846794 -0.0212317 0)
(0.850037 -0.0172222 0)
(0.849481 -0.108174 0)
(0.84577 -0.103525 0)
(0.842236 -0.0987078 0)
(0.838909 -0.0937417 0)
(0.835813 -0.0886406 0)
(0.832966 -0.0834139 0)
(0.830378 -0.078072 0)
(0.828056 -0.0726261 0)
(0.825997 -0.067087 0)
(0.824195 -0.0614652 0)
(0.822629 -0.05577 0)
(0.821264 -0.05001 0)
(0.820043 -0.0441927 0)
(0.818869 -0.0383254 0)
(0.817587 -0.0324181 0)
(0.815969 -0.0264878 0)
(0.813716 -0.0205725 0)
(0.810545 -0.0147476 0)
(0.806389 -0.00914106 0)
(0.829391 -0.126681 0)
(0.824549 -0.121469 0)
(0.820034 -0.115926 0)
(0.815852 -0.110118 0)
(0.812016 -0.10408 0)
(0.808531 -0.0978569 0)
(0.80541 -0.0914928 0)
(0.802657 -0.0850345 0)
(0.800276 -0.0785307 0)
(0.798268 -0.0720309 0)
(0.796634 -0.065586 0)
(0.795382 -0.0592471 0)
(0.794533 -0.0530651 0)
(0.794138 -0.0470888 0)
(0.794302 -0.0413613 0)
(0.795211 -0.0359152 0)
(0.797144 -0.0307552 0)
(0.800403 -0.0258358 0)
(0.805113 -0.0210281 0)
(0.806816 -0.150209 0)
(0.800834 -0.143449 0)
(0.795223 -0.136351 0)
(0.790042 -0.128931 0)
(0.785333 -0.121227 0)
(0.781142 -0.113276 0)
(0.777493 -0.105118 0)
(0.774405 -0.0967995 0)
(0.771885 -0.0883658 0)
(0.76993 -0.0798626 0)
(0.768524 -0.0713313 0)
(0.767631 -0.062808 0)
(0.767194 -0.0543213 0)
(0.767115 -0.0458921 0)
(0.767233 -0.0375369 0)
(0.767283 -0.0292677 0)
(0.766847 -0.02112 0)
(0.765374 -0.0131754 0)
(0.762291 -0.00559863 0)
(0.782923 -0.17486 0)
(0.775046 -0.167081 0)
(0.76777 -0.158577 0)
(0.761121 -0.149494 0)
(0.755174 -0.139913 0)
(0.749958 -0.129919 0)
(0.745522 -0.119611 0)
(0.741885 -0.109089 0)
(0.739065 -0.0984597 0)
(0.737059 -0.0878347 0)
(0.735853 -0.0773325 0)
(0.735427 -0.0670763 0)
(0.735759 -0.0571951 0)
(0.736842 -0.0478232 0)
(0.738715 -0.0390906 0)
(0.741507 -0.0311319 0)
(0.745527 -0.0240348 0)
(0.751219 -0.0178253 0)
(0.759186 -0.012431 0)
(0.75593 -0.205745 0)
(0.745877 -0.195744 0)
(0.736463 -0.184938 0)
(0.727913 -0.173375 0)
(0.720289 -0.161111 0)
(0.713721 -0.14827 0)
(0.70827 -0.134958 0)
(0.704003 -0.121315 0)
(0.700946 -0.107482 0)
(0.699117 -0.0936047 0)
(0.698503 -0.0798236 0)
(0.699069 -0.0662703 0)
(0.700745 -0.0530577 0)
(0.703422 -0.0402696 0)
(0.706912 -0.0279724 0)
(0.710928 -0.0161667 0)
(0.714887 -0.00488462 0)
(0.718061 0.00579843 0)
(0.719127 0.0157898 0)
(0.727832 -0.239701 0)
(0.714236 -0.228092 0)
(0.701817 -0.215021 0)
(0.690498 -0.200603 0)
(0.680562 -0.185102 0)
(0.672091 -0.16866 0)
(0.665231 -0.151503 0)
(0.660046 -0.133841 0)
(0.656603 -0.115906 0)
(0.654914 -0.0979341 0)
(0.654969 -0.0801724 0)
(0.656723 -0.0628778 0)
(0.660102 -0.0463188 0)
(0.665012 -0.0307925 0)
(0.67138 -0.0165817 0)
(0.679145 -0.00407535 0)
(0.688664 0.00644782 0)
(0.700201 0.014761 0)
(0.714933 0.0205443 0)
(0.696125 -0.281785 0)
(0.678771 -0.267379 0)
(0.662291 -0.250859 0)
(0.647489 -0.232716 0)
(0.634463 -0.212942 0)
(0.62352 -0.191869 0)
(0.614778 -0.169764 0)
(0.608406 -0.146936 0)
(0.604449 -0.123698 0)
(0.602965 -0.100374 0)
(0.603949 -0.0772849 0)
(0.607369 -0.0547509 0)
(0.613147 -0.0330866 0)
(0.621159 -0.0125499 0)
(0.631159 0.00656759 0)
(0.642948 0.0242683 0)
(0.655452 0.0404093 0)
(0.668123 0.0549407 0)
(0.678778 0.0682435 0)
(0.664826 -0.329664 0)
(0.640769 -0.312528 0)
(0.619017 -0.292734 0)
(0.59935 -0.270014 0)
(0.582326 -0.245051 0)
(0.568129 -0.218248 0)
(0.557054 -0.190022 0)
(0.549131 -0.160825 0)
(0.54451 -0.131075 0)
(0.54319 -0.101179 0)
(0.545196 -0.0715543 0)
(0.550503 -0.0426295 0)
(0.559055 -0.0148509 0)
(0.57073 0.011215 0)
(0.585466 0.0351293 0)
(0.60267 0.055883 0)
(0.623297 0.0729434 0)
(0.646464 0.0854583 0)
(0.674043 0.0915949 0)
(0.628802 -0.38764 0)
(0.598295 -0.367318 0)