/*--------------------------------*- C++ -*----------------------------------*\
  =========                 |
  \\      /  F ield         | OpenFOAM: The Open Source CFD Toolbox
   \\    /   O peration     | Website:  https://openfoam.org
    \\  /    A nd           | Version:  10
     \\/     M anipulation  |
\*---------------------------------------------------------------------------*/
FoamFile
{
    format      ascii;
    class       volVectorField;
    location    "0";
    object      U;
}
// * * * * * * * * * * * * * * * * * * * * * * * * * * * * * * * * * * * * * //

dimensions      [0 1 -1 0 0 0 0];

internalField   nonuniform List<vector> 
18483
(
(0.999995 -0.000240067 0)
(0.999994 -0.000846098 0)
(0.999993 -0.00131756 0)
(0.999992 -0.00179512 0)
(0.999991 -0.00221014 0)
(0.99999 -0.00257303 0)
(0.99999 -0.00286874 0)
(0.999991 -0.00309131 0)
(0.999992 -0.00323895 0)
(0.999993 -0.00331718 0)
(0.999994 -0.00334409 0)
(0.999996 -0.0033512 0)
(1 -0.00337793 0)
(1.00003 -0.00347432 0)
(1.00008 -0.00367824 0)
(1.00013 -0.0039878 0)
(1.00006 -0.00433916 0)
(0.999296 -0.00463209 0)
(0.996599 -0.00478593 0)
(0.991044 -0.00479277 0)
(0.984629 -0.00476855 0)
(0.981803 -0.00474247 0)
(0.984108 -0.0045735 0)
(0.98871 -0.00422329 0)
(0.992781 -0.00380821 0)
(0.99553 -0.0034246 0)
(0.997188 -0.00310247 0)
(0.998131 -0.00284339 0)
(0.998633 -0.00263821 0)
(1.00073 -0.000704573 0)
(1.00074 -0.002481 0)
(1.00077 -0.00388948 0)
(1.00077 -0.00534608 0)
(1.00076 -0.00664428 0)
(1.00072 -0.00781763 0)
(1.00064 -0.00881158 0)
(1.00052 -0.00960117 0)
(1.00037 -0.0101673 0)
(1.0002 -0.0105053 0)
(1.00003 -0.0106135 0)
(0.999898 -0.0104928 0)
(0.999829 -0.0101221 0)
(0.999833 -0.00942582 0)
(0.999876 -0.00832593 0)
(0.999891 -0.00682375 0)
(0.999928 -0.0050598 0)
(1.00051 -0.00330014 0)
(1.00305 -0.00189169 0)
(1.00876 -0.00116621 0)
(1.01544 -0.00103639 0)
(1.01766 -0.0011668 0)
(1.01361 -0.00143942 0)
(1.00726 -0.0017825 0)
(1.00234 -0.00205463 0)
(0.999455 -0.00218852 0)
(0.997954 -0.00220775 0)
(0.997235 -0.00214983 0)
(0.996938 -0.0020481 0)
(1.00209 -0.00109463 0)
(1.00213 -0.00385135 0)
(1.00225 -0.0060837 0)
(1.00232 -0.00844932 0)
(1.00236 -0.0106206 0)
(1.0023 -0.0126585 0)
(1.00214 -0.0144618 0)
(1.00186 -0.0159789 0)
(1.00145 -0.0171541 0)
(1.00095 -0.0179562 0)
(1.00035 -0.0183748 0)
(0.999691 -0.0184349 0)
(0.998965 -0.0182149 0)
(0.998166 -0.0178666 0)
(0.997264 -0.0176237 0)
(0.996256 -0.0176595 0)
(0.995141 -0.0179486 0)
(0.993719 -0.018249 0)
(0.991298 -0.0181755 0)
(0.987144 -0.0173668 0)
(0.982466 -0.015813 0)
(0.980824 -0.0140705 0)
(0.983626 -0.0125745 0)
(0.987825 -0.0112564 0)
(0.990704 -0.010107 0)
(0.992163 -0.00916605 0)
(0.992838 -0.00839487 0)
(0.993133 -0.00775866 0)
(0.993241 -0.00723105 0)
(1.0037 -0.00141694 0)
(1.00382 -0.004982 0)
(1.00406 -0.00792295 0)
(1.00427 -0.0111075 0)
(1.00441 -0.0141085 0)
(1.00441 -0.0170167 0)
(1.00421 -0.0196871 0)
(1.00378 -0.0220422 0)
(1.00311 -0.0239904 0)
(1.00222 -0.0254801 0)
(1.00113 -0.0265013 0)
(0.999907 -0.0270695 0)
(0.998639 -0.027219 0)
(0.997428 -0.0269706 0)
(0.99636 -0.0262584 0)
(0.99548 -0.024957 0)
(0.994791 -0.0230971 0)
(0.994491 -0.0209535 0)
(0.995416 -0.0189049 0)
(0.998796 -0.0172735 0)
(1.00382 -0.0162347 0)
(1.00619 -0.0155489 0)
(1.00316 -0.0148571 0)
(0.997696 -0.0142944 0)
(0.993447 -0.0139083 0)
(0.990928 -0.0135426 0)
(0.989468 -0.0131696 0)
(0.988593 -0.0127934 0)
(0.988052 -0.0124217 0)
(1.00538 -0.00169054 0)
(1.00561 -0.00593951 0)
(1.006 -0.00949622 0)
(1.00639 -0.0134141 0)
(1.00671 -0.0171864 0)
(1.00683 -0.0209365 0)
(1.00667 -0.0244836 0)
(1.00616 -0.027728 0)
(1.00528 -0.0305376 0)
(1.00405 -0.0328163 0)
(1.00253 -0.0344952 0)
(1.00083 -0.035529 0)
(0.999023 -0.0359141 0)
(0.997184 -0.0357446 0)
(0.995314 -0.0352519 0)
(0.993398 -0.0347632 0)
(0.991417 -0.0345174 0)
(0.989234 -0.0344598 0)
(0.986192 -0.0342807 0)
(0.98132 -0.0336527 0)
(0.975278 -0.0324154 0)
(0.971797 -0.0307115 0)
(0.973531 -0.0289836 0)
(0.977652 -0.0272858 0)
(0.980475 -0.0255469 0)
(0.981714 -0.0239794 0)
(0.982201 -0.0226426 0)
(0.982364 -0.0215162 0)
(0.982383 -0.0205784 0)
(1.00709 -0.00192482 0)
(1.00744 -0.00675714 0)
(1.00802 -0.0108496 0)
(1.00865 -0.0154195 0)
(1.00921 -0.0198989 0)
(1.00954 -0.0244474 0)
(1.00951 -0.0288589 0)
(1.00901 -0.0330151 0)
(1.008 -0.0367405 0)
(1.00647 -0.0398909 0)
(1.00449 -0.0423544 0)
(1.00212 -0.0440918 0)
(0.999464 -0.0451442 0)
(0.996631 -0.0455918 0)
(0.993794 -0.0454388 0)
(0.991145 -0.044533 0)
(0.988806 -0.0426927 0)
(0.98692 -0.0400352 0)
(0.986185 -0.0370675 0)
(0.988004 -0.0343383 0)
(0.992304 -0.0321967 0)
(0.994906 -0.0307365 0)
(0.991743 -0.0295781 0)
(0.985297 -0.0285954 0)
(0.980313 -0.0279057 0)
(0.977524 -0.0272718 0)
(0.975884 -0.0265966 0)
(0.974835 -0.0259037 0)
(0.974123 -0.0252084 0)
(1.00883 -0.00212046 0)
(1.00932 -0.00743836 0)
(1.01012 -0.0119881 0)
(1.01103 -0.0171277 0)
(1.01191 -0.0222458 0)
(1.01253 -0.0275437 0)
(1.01272 -0.0328 0)
(1.01234 -0.0378876 0)
(1.01129 -0.0425969 0)
(1.00953 -0.0467522 0)
(1.0071 -0.0502086 0)
(1.0041 -0.0528801 0)
(1.00073 -0.0547105 0)
(0.997198 -0.0556438 0)
(0.993674 -0.0556946 0)
(0.990181 -0.0551461 0)
(0.986656 -0.0545972 0)
(0.983004 -0.0544515 0)
(0.978796 -0.0544252 0)
(0.972932 -0.0539339 0)
(0.965342 -0.0526084 0)
(0.959621 -0.0504216 0)
(0.959871 -0.0479416 0)
(0.963858 -0.0454968 0)
(0.966503 -0.0429589 0)
(0.967126 -0.0405926 0)
(0.967024 -0.0385579 0)
(0.966693 -0.0368217 0)
(0.966295 -0.0353627 0)
(1.01057 -0.00227655 0)
(1.01121 -0.00798094 0)
(1.01226 -0.0129083 0)
(1.0135 -0.0185337 0)
(1.01474 -0.0242185 0)
(1.01573 -0.0302107 0)
(1.01625 -0.0362845 0)
(1.01609 -0.0423153 0)
(1.01511 -0.0480703 0)
(1.01324 -0.0533393 0)
(1.01051 -0.0579136 0)
(1.00703 -0.0616151 0)
(1.003 -0.0643181 0)
(0.998589 -0.0660076 0)
(0.993914 -0.0667893 0)
(0.98913 -0.0667338 0)
(0.984536 -0.0656438 0)
(0.980485 -0.0631977 0)
(0.977469 -0.0596198 0)
(0.976765 -0.0557864 0)
(0.979306 -0.0525751 0)
(0.98177 -0.0504663 0)
(0.978467 -0.0489479 0)
(0.970496 -0.0474987 0)
(0.963984 -0.0463619 0)
(0.960454 -0.0453477 0)
(0.958273 -0.0442482 0)
(0.95675 -0.0431279 0)
(0.955641 -0.0420128 0)
(1.01226 -0.0023947 0)
(1.01306 -0.00839076 0)
(1.01437 -0.0136184 0)
(1.01595 -0.0196463 0)
(1.0176 -0.0258229 0)
(1.01902 -0.0324455 0)
(1.01995 -0.0392948 0)
(1.02014 -0.0462576 0)
(1.01937 -0.0530869 0)
(1.01755 -0.0595391 0)
(1.01464 -0.0653507 0)
(1.01073 -0.0702963 0)
(1.00595 -0.074227 0)
(1.00052 -0.0770835 0)
(0.994694 -0.0788406 0)
(0.988758 -0.0794703 0)
(0.982866 -0.0792387 0)
(0.976949 -0.0789188 0)
(0.97072 -0.079023 0)
(0.963455 -0.0790454 0)
(0.954535 -0.0780145 0)
(0.946381 -0.0753965 0)
(0.943952 -0.071936 0)
(0.946875 -0.0685784 0)
(0.949074 -0.0651852 0)
(0.948729 -0.0618961 0)
(0.9477 -0.0590554 0)
(0.946621 -0.0566077 0)
(0.945582 -0.0545235 0)
(1.01387 -0.00247925 0)
(1.01483 -0.00868267 0)
(1.0164 -0.0141393 0)
(1.01834 -0.0204904 0)
(1.02042 -0.027082 0)
(1.02233 -0.0342623 0)
(1.02375 -0.0418268 0)
(1.02438 -0.0496827 0)
(1.02396 -0.0575803 0)
(1.02233 -0.06526 0)
(1.01939 -0.0724261 0)
(1.01517 -0.0788081 0)
(1.00983 -0.0841706 0)
(1.00364 -0.0883183 0)
(0.996877 -0.0911477 0)
(0.989796 -0.0926697 0)
(0.982614 -0.0928844 0)
(0.975757 -0.0915347 0)
(0.969887 -0.0883718 0)
(0.966039 -0.0839424 0)
(0.965412 -0.0796218 0)
(0.966328 -0.0767012 0)
(0.96284 -0.0749514 0)
(0.953575 -0.0731041 0)
(0.944938 -0.0713169 0)
(0.94015 -0.0697955 0)
(0.937112 -0.0681421 0)
(0.934797 -0.0664474 0)
(0.933039 -0.0647907 0)
(1.01537 -0.00253578 0)
(1.01648 -0.00887558 0)
(1.01831 -0.0144985 0)
(1.02062 -0.0210997 0)
(1.02315 -0.0280301 0)
(1.02557 -0.0356884 0)
(1.02755 -0.043892 0)
(1.02872 -0.0525761 0)
(1.02879 -0.0615019 0)
(1.0275 -0.0704101 0)
(1.02472 -0.0789801 0)
(1.02042 -0.0868833 0)
(1.01473 -0.0937998 0)
(1.00785 -0.0994646 0)
(1.00002 -0.103739 0)
(0.991533 -0.106579 0)
(0.982703 -0.107988 0)
(0.973791 -0.108383 0)
(0.964793 -0.108667 0)
(0.955382 -0.109169 0)
(0.944923 -0.108926 0)
(0.934304 -0.106588 0)
(0.927851 -0.102301 0)
(0.927818 -0.0978239 0)
(0.928958 -0.0936532 0)
(0.927414 -0.0894254 0)
(0.925061 -0.0856902 0)
(0.922974 -0.0824893 0)
(0.921079 -0.0797099 0)
(1.01674 -0.00256991 0)
(1.01801 -0.00898853 0)
(1.02009 -0.0147244 0)
(1.02276 -0.0215101 0)
(1.02575 -0.0287059 0)
(1.02872 -0.0367598 0)
(1.03129 -0.0455159 0)
(1.03309 -0.0549425 0)
(1.03375 -0.0648244 0)
(1.03297 -0.074915 0)
(1.03053 -0.0848816 0)
(1.02634 -0.0943613 0)
(1.02045 -0.102991 0)
(1.013 -0.110445 0)
(1.00424 -0.116471 0)
(0.994559 -0.120901 0)
(0.984352 -0.123625 0)
(0.974081 -0.124451 0)
(0.964527 -0.122998 0)
(0.95672 -0.119234 0)
(0.951852 -0.114211 0)
(0.949625 -0.10992 0)
(0.945474 -0.107561 0)
(0.935566 -0.105578 0)
(0.924458 -0.102994 0)
(0.917528 -0.100665 0)
(0.913222 -0.0982853 0)
(0.909735 -0.0957381 0)
(0.907009 -0.0932842 0)
(1.01798 -0.00258669 0)
(1.0194 -0.00903894 0)
(1.02172 -0.0148434 0)
(1.02475 -0.0217569 0)
(1.0282 -0.02915 0)
(1.03172 -0.0375184 0)
(1.03493 -0.0467355 0)
(1.0374 -0.0568062 0)
(1.03875 -0.0675481 0)
(1.0386 -0.0787403 0)
(1.03667 -0.0900573 0)
(1.0328 -0.101126 0)
(1.02694 -0.111543 0)
(1.01921 -0.120895 0)
(1.00985 -0.128803 0)
(0.999182 -0.134994 0)
(0.98756 -0.139299 0)
(0.975362 -0.141703 0)
(0.962922 -0.142906 0)
(0.950348 -0.143994 0)
(0.93744 -0.144859 0)
(0.924045 -0.143843 0)
(0.912725 -0.13957 0)
(0.907549 -0.133728 0)
(0.906347 -0.128463 0)
(0.903466 -0.123273 0)
(0.899289 -0.118338 0)
(0.895733 -0.114144 0)
(0.892631 -0.110427 0)
(1.01911 -0.00259048 0)
(1.02065 -0.00904184 0)
(1.02322 -0.014879 0)
(1.02658 -0.0218724 0)
(1.03048 -0.0294023 0)
(1.03455 -0.0380094 0)
(1.03839 -0.0475972 0)
(1.04157 -0.0582082 0)
(1.04367 -0.0697 0)
(1.04426 -0.0818876 0)
(1.043 -0.0944677 0)
(1.03964 -0.107069 0)
(1.03408 -0.119263 0)
(1.02633 -0.130581 0)
(1.01652 -0.140578 0)
(1.00489 -0.148912 0)
(0.991824 -0.155354 0)
(0.977844 -0.159654 0)
(0.963856 -0.161448 0)
(0.951261 -0.160208 0)
(0.94121 -0.156022 0)
(0.934022 -0.150708 0)
(0.927435 -0.147024 0)
(0.91682 -0.144852 0)
(0.903159 -0.141674 0)
(0.892652 -0.138011 0)
(0.886122 -0.134537 0)
(0.880866 -0.130719 0)
(0.87659 -0.126982 0)
(1.02012 -0.00258478 0)
(1.02179 -0.00900958 0)
(1.02457 -0.0148512 0)
(1.02826 -0.0218848 0)
(1.03258 -0.0294995 0)
(1.03718 -0.0382776 0)
(1.04164 -0.0481513 0)
(1.04555 -0.0592002 0)
(1.04843 -0.0713253 0)
(1.04984 -0.084385 0)
(1.04937 -0.0981103 0)
(1.04671 -0.112149 0)
(1.04164 -0.126077 0)
(1.03408 -0.13941 0)
(1.02407 -0.151643 0)
(1.01181 -0.162296 0)
(0.997729 -0.170973 0)
(0.982365 -0.177274 0)
(0.96635 -0.181153 0)
(0.950105 -0.183659 0)
(0.933456 -0.185909 0)
(0.916174 -0.186925 0)
(0.899433 -0.184188 0)
(0.887229 -0.177625 0)
(0.881237 -0.170624 0)
(0.876341 -0.164311 0)
(0.869795 -0.157808 0)
(0.863867 -0.152016 0)
(0.858957 -0.146888 0)
(1.02103 -0.00257231 0)
(1.02281 -0.00895189 0)
(1.0258 -0.0147761 0)
(1.02978 -0.0218181 0)
(1.0345 -0.0294744 0)
(1.0396 -0.0383652 0)
(1.04468 -0.048448 0)
(1.0493 -0.059838 0)
(1.05299 -0.0724818 0)
(1.05527 -0.0862846 0)
(1.05567 -0.101023 0)
(1.05383 -0.116381 0)
(1.04945 -0.131955 0)
(1.04236 -0.147259 0)
(1.03251 -0.161732 0)
(1.02001 -0.174795 0)
(1.00514 -0.185999 0)
(0.988359 -0.194987 0)
(0.970367 -0.201396 0)
(0.952452 -0.204686 0)
(0.936243 -0.204012 0)
(0.922559 -0.199583 0)
(0.910812 -0.194465 0)
(0.897848 -0.191558 0)
(0.881424 -0.188504 0)
(0.8657 -0.183425 0)
(0.854871 -0.178202 0)
(0.846794 -0.172737 0)
(0.839995 -0.167052 0)
(1.02184 -0.00255516 0)
(1.02373 -0.00887639 0)
(1.02691 -0.0146669 0)
(1.03117 -0.021692 0)
(1.03626 -0.0293553 0)
(1.04183 -0.0383099 0)
(1.04749 -0.0485344 0)
(1.0528 -0.0601786 0)
(1.05729 -0.0732338 0)
(1.06045 -0.0876535 0)
(1.0618 -0.103265 0)
(1.06089 -0.119798 0)
(1.05737 -0.13688 0)
(1.051 -0.15404 0)
(1.0416 -0.170714 0)
(1.02912 -0.18629 0)
(1.01375 -0.200252 0)
(0.99598 -0.2121 0)
(0.976607 -0.221228 0)
(0.956399 -0.227516 0)
(0.935388 -0.232117 0)
(0.913118 -0.235855 0)
(0.89016 -0.236718 0)
(0.869439 -0.231725 0)
(0.855136 -0.223056 0)
(0.845838 -0.215008 0)
(0.836139 -0.206879 0)
(0.826354 -0.198641 0)
(0.818378 -0.191308 0)
(1.02258 -0.00253489 0)
(1.02456 -0.00878905 0)
(1.02791 -0.0145342 0)
(1.03242 -0.0215231 0)
(1.03786 -0.0291662 0)
(1.04387 -0.0381452 0)
(1.05007 -0.0484544 0)
(1.05605 -0.0602779 0)
(1.06131 -0.0736481 0)
(1.06535 -0.0885656 0)
(1.06766 -0.10491 0)
(1.06776 -0.122462 0)
(1.06524 -0.140892 0)
(1.05976 -0.159769 0)
(1.05103 -0.178563 0)
(1.0389 -0.196642 0)
(1.02347 -0.2134 0)
(1.00517 -0.22828 0)
(0.984618 -0.240711 0)
(0.96251 -0.250145 0)
(0.939955 -0.255621 0)
(0.918528 -0.255802 0)
(0.899097 -0.251633 0)
(0.880841 -0.247757 0)
(0.860612 -0.24542 0)
(0.838434 -0.240282 0)
(0.819924 -0.232863 0)
(0.806657 -0.225367 0)
(0.795705 -0.217136 0)
(1.02324 -0.00251272 0)
(1.02531 -0.00869452 0)
(1.02881 -0.0143863 0)
(1.03355 -0.0213248 0)
(1.03931 -0.0289272 0)
(1.04572 -0.0378996 0)
(1.05243 -0.0482473 0)
(1.05903 -0.0601868 0)
(1.06504 -0.0737881 0)
(1.06994 -0.0890947 0)
(1.07321 -0.106039 0)
(1.07436 -0.124456 0)
(1.0729 -0.14407 0)
(1.06844 -0.164499 0)
(1.0606 -0.185257 0)
(1.04916 -0.205716 0)
(1.03408 -0.225244 0)
(1.01565 -0.243287 0)
(0.9944 -0.259209 0)
(0.970968 -0.272257 0)
(0.945644 -0.282218 0)
(0.918039 -0.290207 0)
(0.888291 -0.296387 0)
(0.858325 -0.29699 0)
(0.832342 -0.289602 0)
(0.813755 -0.279512 0)
(0.798798 -0.27002 0)
(0.7833 -0.259131 0)
(0.769687 -0.248514 0)
(1.02384 -0.00248953 0)
(1.02599 -0.00859647 0)
(1.02963 -0.0142302 0)
(1.03457 -0.0211085 0)
(1.04062 -0.0286549 0)
(1.0474 -0.037597 0)
(1.05458 -0.0479469 0)
(1.06176 -0.0599509 0)
(1.06847 -0.0737115 0)
(1.0742 -0.0893123 0)
(1.07842 -0.106736 0)
(1.08061 -0.125873 0)
(1.08026 -0.146505 0)
(1.07692 -0.168299 0)
(1.07017 -0.190821 0)
(1.05968 -0.213492 0)
(1.04528 -0.235697 0)
(1.02715 -0.256882 0)
(1.00575 -0.276407 0)
(0.981474 -0.293497 0)
(0.954534 -0.307218 0)
(0.925974 -0.315925 0)
(0.897783 -0.317835 0)
(0.870924 -0.315193 0)
(0.844256 -0.313961 0)
(0.814921 -0.311972 0)
(0.785202 -0.304109 0)
(0.76178 -0.294243 0)
(0.743741 -0.283505 0)
(1.02438 -0.00246603 0)
(1.0266 -0.0084977 0)
(1.03036 -0.0140711 0)
(1.03549 -0.0208828 0)
(1.0418 -0.0283632 0)
(1.04891 -0.0372573 0)
(1.05653 -0.0475811 0)
(1.06425 -0.0596084 0)
(1.07161 -0.0734693 0)
(1.07812 -0.0892833 0)
(1.08326 -0.10708 0)
(1.08647 -0.126804 0)
(1.08726 -0.148291 0)
(1.08511 -0.171259 0)
(1.07955 -0.195337 0)
(1.07017 -0.220015 0)
(1.05674 -0.244712 0)
(1.03935 -0.268892 0)
(1.01832 -0.291971 0)
(0.993836 -0.31314 0)
(0.965781 -0.331449 0)
(0.934005 -0.34676 0)
(0.898459 -0.360368 0)
(0.859869 -0.371129 0)
(0.820688 -0.372299 0)
(0.786592 -0.363026 0)
(0.760723 -0.352301 0)
(0.737266 -0.34048 0)
(0.714143 -0.325957 0)
(1.02486 -0.00244275 0)
(1.02714 -0.0084004 0)
(1.03102 -0.0139131 0)
(1.0363 -0.020655 0)
(1.04286 -0.0280629 0)
(1.05027 -0.0368967 0)
(1.05828 -0.0471734 0)
(1.0665 -0.0591917 0)
(1.07448 -0.0731057 0)
(1.08172 -0.0890662 0)
(1.08772 -0.107146 0)
(1.09193 -0.127337 0)
(1.09384 -0.149529 0)
(1.09288 -0.173494 0)
(1.08857 -0.19892 0)
(1.08044 -0.225371 0)
(1.06821 -0.252316 0)
(1.0519 -0.279272 0)
(1.0317 -0.305735 0)
(1.00761 -0.330981 0)
(0.979241 -0.354086 0)
(0.946679 -0.373791 0)
(0.911473 -0.387585 0)
(0.875329 -0.393121 0)
(0.839072 -0.394675 0)
(0.801383 -0.398705 0)
(0.75913 -0.397344 0)
(0.718204 -0.386626 0)
(0.686611 -0.373897 0)
(1.02529 -0.00242009 0)
(1.02762 -0.00830621 0)
(1.0316 -0.0137593 0)
(1.03703 -0.0204302 0)
(1.0438 -0.0277627 0)
(1.05148 -0.0365281 0)
(1.05985 -0.0467427 0)
(1.06852 -0.0587279 0)
(1.07706 -0.0726575 0)
(1.08499 -0.0887103 0)
(1.0918 -0.106997 0)
(1.09696 -0.127552 0)
(1.09994 -0.150315 0)
(1.10018 -0.175113 0)
(1.09712 -0.201686 0)
(1.09033 -0.229667 0)
(1.07946 -0.25859 0)
(1.06448 -0.288044 0)
(1.04551 -0.317614 0)
(1.02237 -0.346655 0)
(0.994525 -0.374308 0)
(0.961546 -0.399721 0)
(0.923026 -0.423156 0)
(0.878837 -0.446459 0)
(0.829604 -0.465989 0)
(0.777171 -0.469603 0)
(0.730124 -0.459745 0)
(0.692726 -0.449295 0)
(0.65634 -0.433449 0)
(1.02567 -0.00239837 0)
(1.02805 -0.00821637 0)
(1.03211 -0.013612 0)
(1.03767 -0.0202127 0)
(1.04463 -0.0274692 0)
(1.05255 -0.0361617 0)
(1.06125 -0.0463046 0)
(1.07033 -0.0582396 0)
(1.07938 -0.072156 0)
(1.08794 -0.088258 0)
(1.09551 -0.106688 0)
(1.10156 -0.127521 0)
(1.10557 -0.15074 0)
(1.10695 -0.176223 0)
(1.10516 -0.203755 0)
(1.09973 -0.233035 0)
(1.0903 -0.263668 0)
(1.07682 -0.295311 0)
(1.05937 -0.327647 0)
(1.03761 -0.36013 0)
(1.01087 -0.392114 0)
(0.978733 -0.423054 0)
(0.941307 -0.451478 0)
(0.899583 -0.47343 0)
(0.854219 -0.485642 0)
(0.805976 -0.496482 0)
(0.752585 -0.511587 0)
(0.689691 -0.511585 0)
(0.630472 -0.497251 0)
(1.026 -0.00237782 0)
(1.02843 -0.00813173 0)
(1.03256 -0.0134728 0)
(1.03824 -0.0200053 0)
(1.04537 -0.0271873 0)
(1.0535 -0.0358052 0)
(1.06249 -0.0458709 0)
(1.07194 -0.0577442 0)
(1.08145 -0.0716263 0)
(1.09058 -0.0877438 0)
(1.09885 -0.106268 0)
(1.10573 -0.127305 0)
(1.11071 -0.150882 0)
(1.1132 -0.176919 0)
(1.11263 -0.205244 0)
(1.10854 -0.23561 0)
(1.10058 -0.267694 0)
(1.08869 -0.30121 0)
(1.07293 -0.335939 0)
(1.0529 -0.37145 0)
(1.02781 -0.407196 0)
(0.99743 -0.442895 0)
(0.961062 -0.478178 0)
(0.916428 -0.513947 0)
(0.863437 -0.554165 0)
(0.801702 -0.591459 0)
(0.728317 -0.601845 0)
(0.657522 -0.593453 0)
(0.599691 -0.583079 0)
(1.02629 -0.0023586 0)
(1.02876 -0.00805287 0)
(1.03296 -0.0133426 0)
(1.03874 -0.0198102 0)
(1.04602 -0.0269205 0)
(1.05434 -0.0354643 0)
(1.06359 -0.0454509 0)
(1.07336 -0.0572557 0)
(1.08329 -0.0710885 0)
(1.09295 -0.0871965 0)
(1.10185 -0.105774 0)
(1.1095 -0.126959 0)
(1.11537 -0.150811 0)
(1.1189 -0.17729 0)
(1.1195 -0.206262 0)
(1.1167 -0.237528 0)
(1.11019 -0.270825 0)
(1.09992 -0.305918 0)
(1.08593 -0.342659 0)
(1.06785 -0.38075 0)
(1.04479 -0.419748 0)
(1.0165 -0.45966 0)
(0.982948 -0.501 0)
(0.943129 -0.542468 0)
(0.895883 -0.577219 0)
(0.840094 -0.600219 0)
(0.777575 -0.632479 0)
(0.698031 -0.67462 0)
(0.592297 -0.673905 0)
(1.02655 -0.00234078 0)
(1.02905 -0.00798008 0)
(1.03331 -0.0132222 0)
(1.03918 -0.0196288 0)
(1.04659 -0.0266711 0)
(1.05508 -0.035143 0)
(1.06456 -0.0450509 0)
(1.07462 -0.0567838 0)
(1.08493 -0.0705579 0)
(1.09505 -0.0866382 0)
(1.10452 -0.105239 0)
(1.11287 -0.126524 0)
(1.11956 -0.150583 0)
(1.12405 -0.177411 0)
(1.12575 -0.206907 0)
(1.12418 -0.238908 0)
(1.11908 -0.273204 0)
(1.11039 -0.309608 0)
(1.09816 -0.348006 0)
(1.08209 -0.388216 0)
(1.06137 -0.429968 0)
(1.03564 -0.473236 0)
(1.00551 -0.518826 0)
(0.969487 -0.56778 0)
(0.920824 -0.621769 0)
(0.860356 -0.691371 0)
(0.788977 -0.769819 0)
(0.677903 -0.802952 0)
(0.540641 -0.795469 0)
(1.02678 -0.00232443 0)
(1.02931 -0.0079135 0)
(1.03362 -0.0131117 0)
(1.03957 -0.0194617 0)
(1.04709 -0.0264407 0)
(1.05573 -0.034844 0)
(1.06541 -0.0446757 0)
(1.07573 -0.0563362 0)
(1.08637 -0.0700464 0)
(1.0969 -0.086087 0)
(1.1069 -0.104688 0)
(1.11587 -0.126038 0)
(1.12332 -0.15025 0)
(1.12868 -0.177349 0)
(1.13139 -0.207265 0)
(1.13098 -0.239862 0)
(1.12719 -0.274972 0)
(1.12002 -0.312456 0)
(1.1095 -0.352212 0)
(1.09536 -0.394101 0)
(1.0771 -0.43807 0)
(1.05428 -0.484114 0)
(1.02718 -0.532936 0)
(0.996687 -0.587786 0)
(0.961096 -0.64985 0)
(0.913312 -0.703691 0)
(0.845826 -0.739202 0)
(0.768337 -0.82842 0)
(0.6245 -0.943304 0)
(1.02698 -0.00230953 0)
(1.02953 -0.00785309 0)
(1.03389 -0.0130113 0)
(1.03991 -0.0193092 0)
(1.04753 -0.0262296 0)
(1.0563 -0.0345686 0)
(1.06616 -0.0443279 0)
(1.0767 -0.0559175 0)
(1.08764 -0.0695619 0)
(1.09854 -0.0855549 0)
(1.109 -0.104141 0)
(1.11853 -0.125527 0)
(1.12666 -0.149849 0)
(1.13281 -0.177157 0)
(1.13645 -0.207404 0)
(1.13709 -0.24048 0)
(1.13452 -0.276247 0)
(1.12879 -0.314606 0)
(1.11989 -0.355469 0)
(1.10755 -0.398673 0)
(1.09162 -0.444318 0)
(1.07188 -0.492602 0)
(1.04828 -0.543779 0)
(1.02329 -0.601018 0)
(0.99595 -0.668143 0)
(0.949478 -0.742906 0)
(0.887311 -0.856263 0)
(0.818208 -1.03496 0)
(0.58472 -1.07177 0)
(0.998861 -0.00247418 0)
(0.998914 -0.00232945 0)
(0.998804 -0.00219006 0)
(0.998517 -0.00205594 0)
(0.998032 -0.0019276 0)
(0.99732 -0.00180577 0)
(0.996357 -0.00169171 0)
(0.995129 -0.00158725 0)
(0.993638 -0.00149455 0)
(0.991917 -0.00141579 0)
(0.990032 -0.00135273 0)
(0.988083 -0.00130614 0)
(0.986205 -0.00127521 0)
(0.984548 -0.00125715 0)
(0.983264 -0.00124701 0)
(0.982482 -0.00123796 0)
(0.982285 -0.001222 0)
(0.982692 -0.00119102 0)
(0.983653 -0.00113808 0)
(0.996876 -0.00192831 0)
(0.996967 -0.00180128 0)
(0.99721 -0.00166835 0)
(0.997624 -0.00153334 0)
(0.998243 -0.00139714 0)
(0.999102 -0.0012599 0)
(1.00024 -0.00112057 0)
(1.00168 -0.000976624 0)
(1.00341 -0.000823932 0)
(1.00541 -0.000656996 0)
(1.00759 -0.000469484 0)
(1.00982 -0.000255192 0)
(1.01192 -9.32881e-06 0)
(1.0137 0.000270098 0)
(1.01497 0.000581145 0)
(1.01557 0.000917434 0)
(1.01541 0.00126856 0)
(1.0145 0.00162144 0)
(1.01293 0.00196236 0)
(0.993243 -0.00678376 0)
(0.99317 -0.00636364 0)
(0.993006 -0.00593146 0)
(0.992726 -0.00548614 0)
(0.992293 -0.00502872 0)
(0.991662 -0.00456081 0)
(0.990783 -0.00408559 0)
(0.989614 -0.00360859 0)
(0.988127 -0.00313784 0)
(0.986328 -0.00268385 0)
(0.984263 -0.002259 0)
(0.982035 -0.00187615 0)
(0.979797 -0.00154678 0)
(0.977747 -0.00127865 0)
(0.976099 -0.00107368 0)
(0.975047 -0.000926611 0)
(0.97473 -0.000824784 0)
(0.975199 -0.000749516 0)
(0.976399 -0.000678644 0)
(0.987716 -0.0120683 0)
(0.987512 -0.0117255 0)
(0.98743 -0.0113808 0)
(0.987503 -0.0110374 0)
(0.987775 -0.0106957 0)
(0.988308 -0.0103552 0)
(0.989169 -0.0100147 0)
(0.990422 -0.009671 0)
(0.992111 -0.00931827 0)
(0.994243 -0.00894805 0)
(0.996765 -0.00854946 0)
(0.999553 -0.00811027 0)
(1.00241 -0.00761884 0)
(1.00507 -0.00706669 0)
(1.00725 -0.00645102 0)
(1.00868 -0.00577659 0)
(1.00915 -0.00505603 0)
(1.00858 -0.00430833 0)
(1.00701 -0.0035555 0)
(0.982334 -0.0197883 0)
(0.982238 -0.0190565 0)
(0.982083 -0.0183175 0)
(0.981844 -0.0175688 0)
(0.981483 -0.0168088 0)
(0.980944 -0.0160351 0)
(0.980159 -0.015245 0)
(0.979054 -0.0144372 0)
(0.977563 -0.0136123 0)
(0.975649 -0.0127737 0)
(0.973321 -0.0119285 0)
(0.970662 -0.0110867 0)
(0.967838 -0.0102608 0)
(0.965094 -0.00946319 0)
(0.962727 -0.00870378 0)
(0.961035 -0.00798734 0)
(0.960256 -0.00731226 0)
(0.960507 -0.00667081 0)
(0.961751 -0.00605121 0)
(0.973613 -0.0245373 0)
(0.973214 -0.0238733 0)
(0.972895 -0.0231878 0)
(0.972674 -0.0224863 0)
(0.972585 -0.0217708 0)
(0.97268 -0.0210443 0)
(0.973028 -0.0203111 0)
(0.973707 -0.019575 0)
(0.974792 -0.0188391 0)
(0.976337 -0.0181041 0)
(0.978347 -0.0173672 0)
(0.980756 -0.0166217 0)
(0.983407 -0.0158569 0)
(0.986055 -0.01506 0)
(0.988392 -0.0142186 0)
(0.990099 -0.0133237 0)
(0.990908 -0.0123729 0)
(0.990671 -0.0113708 0)
(0.989395 -0.0103277 0)
(0.965902 -0.0341251 0)
(0.96551 -0.0329751 0)
(0.965094 -0.0318145 0)
(0.964647 -0.0306427 0)
(0.964145 -0.0294599 0)
(0.96355 -0.0282642 0)
(0.962808 -0.0270523 0)
(0.961847 -0.0258204 0)
(0.960588 -0.0245646 0)
(0.958959 -0.0232826 0)
(0.956918 -0.0219749 0)
(0.95448 -0.0206465 0)
(0.951749 -0.0193075 0)
(0.948924 -0.017972 0)
(0.946291 -0.0166562 0)
(0.944178 -0.0153744 0)
(0.942882 -0.0141361 0)
(0.942594 -0.0129438 0)
(0.94334 -0.0117931 0)
(0.954789 -0.0409404 0)
(0.954069 -0.0398791 0)
(0.95342 -0.0387785 0)
(0.952847 -0.0376449 0)
(0.95237 -0.0364795 0)
(0.952021 -0.0352854 0)
(0.951848 -0.0340671 0)
(0.951915 -0.0328307 0)
(0.952297 -0.0315824 0)
(0.953066 -0.0303284 0)
(0.954272 -0.0290724 0)
(0.955916 -0.027814 0)
(0.957917 -0.0265471 0)
(0.960099 -0.0252594 0)
(0.962198 -0.023935 0)
(0.963897 -0.0225581 0)
(0.964894 -0.0211172 0)
(0.964978 -0.0196097 0)
(0.964095 -0.0180424 0)
(0.944653 -0.052738 0)
(0.943785 -0.0510652 0)
(0.942926 -0.0493685 0)
(0.942077 -0.0476494 0)
(0.94123 -0.0459107 0)
(0.940367 -0.0441526 0)
(0.939455 -0.0423739 0)
(0.938443 -0.0405725 0)
(0.937266 -0.0387451 0)
(0.935845 -0.0368884 0)
(0.934107 -0.0350008 0)
(0.93201 -0.0330846 0)
(0.929577 -0.0311487 0)
(0.926923 -0.029209 0)
(0.92427 -0.0272872 0)
(0.921924 -0.0254059 0)
(0.920219 -0.0235828 0)
(0.91942 -0.0218247 0)
(0.919639 -0.0201245 0)
(0.931635 -0.0632088 0)
(0.930411 -0.0616515 0)
(0.929269 -0.0600383 0)
(0.928212 -0.0583787 0)
(0.927249 -0.0566753 0)
(0.9264 -0.0549321 0)
(0.925693 -0.053154 0)
(0.925171 -0.051347 0)
(0.924892 -0.0495177 0)
(0.924925 -0.0476725 0)
(0.925338 -0.0458157 0)
(0.926181 -0.0439468 0)
(0.92745 -0.0420573 0)
(0.929058 -0.0401286 0)
(0.930811 -0.0381324 0)
(0.93242 -0.0360364 0)
(0.933544 -0.0338126 0)
(0.93388 -0.031449 0)
(0.93326 -0.0289564 0)
(0.919443 -0.0773038 0)
(0.917957 -0.0750255 0)
(0.916523 -0.0726971 0)
(0.915149 -0.0703213 0)
(0.913835 -0.0679003 0)
(0.912572 -0.0654335 0)
(0.91134 -0.062919 0)
(0.910104 -0.0603537 0)
(0.908811 -0.0577332 0)
(0.907381 -0.0550523 0)
(0.905723 -0.0523068 0)
(0.90374 -0.049497 0)
(0.901368 -0.0466317 0)
(0.898614 -0.0437329 0)
(0.8956 -0.0408376 0)
(0.892592 -0.0379934 0)
(0.889969 -0.0352482 0)
(0.888144 -0.0326341 0)
(0.887431 -0.0301536 0)
(0.904795 -0.0909519 0)
(0.902831 -0.0886564 0)
(0.90097 -0.0862713 0)
(0.899209 -0.0838099 0)
(0.897551 -0.0812785 0)
(0.896003 -0.0786837 0)
(0.894578 -0.0760333 0)
(0.893297 -0.0733365 0)
(0.892196 -0.0706036 0)
(0.891331 -0.0678466 0)
(0.890778 -0.0650775 0)
(0.890626 -0.062306 0)
(0.890961 -0.059534 0)
(0.891822 -0.0567489 0)
(0.89315 -0.0539181 0)
(0.894745 -0.0509881 0)
(0.896254 -0.0478943 0)
(0.897231 -0.0445826 0)
(0.897263 -0.0410367 0)
(0.889969 -0.107145 0)
(0.887576 -0.104002 0)
(0.885283 -0.100758 0)
(0.883102 -0.0974232 0)
(0.881039 -0.0940004 0)
(0.879093 -0.0904912 0)
(0.877257 -0.086897 0)
(0.875516 -0.0832185 0)
(0.873837 -0.0794555 0)
(0.872167 -0.0756058 0)
(0.870423 -0.0716661 0)
(0.868489 -0.0676333 0)
(0.866232 -0.0635096 0)
(0.863529 -0.0593112 0)
(0.86033 -0.0550776 0)
(0.856738 -0.0508791 0)
(0.853071 -0.0468121 0)
(0.84987 -0.0429769 0)
(0.847774 -0.0394375 0)
(0.873132 -0.123467 0)
(0.870046 -0.119984 0)
(0.867122 -0.116352 0)
(0.864358 -0.112591 0)
(0.861757 -0.108721 0)
(0.859324 -0.10476 0)
(0.857066 -0.100725 0)
(0.854992 -0.0966374 0)
(0.853116 -0.092516 0)
(0.851466 -0.0883833 0)
(0.850094 -0.0842637 0)
(0.849085 -0.0801834 0)
(0.848566 -0.0761669 0)
(0.848687 -0.0722293 0)
(0.849581 -0.0683621 0)
(0.851269 -0.0645165 0)
(0.853553 -0.0605928 0)
(0.855929 -0.0564531 0)
(0.857643 -0.0519713 0)
(0.854731 -0.142203 0)
(0.850976 -0.137678 0)
(0.84742 -0.13296 0)
(0.844082 -0.128081 0)
(0.840981 -0.123052 0)
(0.838123 -0.117883 0)
(0.835512 -0.112588 0)
(0.833145 -0.107179 0)
(0.831007 -0.101667 0)
(0.829071 -0.0960634 0)
(0.827286 -0.090375 0)
(0.825565 -0.0846057 0)
(0.82377 -0.0787551 0)
(0.821704 -0.0728253 0)
(0.819132 -0.0668339 0)
(0.815855 -0.0608373 0)
(0.811857 -0.0549572 0)
(0.807505 -0.0493847 0)
(0.803671 -0.0443406 0)
(0.834547 -0.161722 0)
(0.829739 -0.156363 0)
(0.825231 -0.150713 0)
(0.821049 -0.144822 0)
(0.817196 -0.138723 0)
(0.813689 -0.132462 0)
(0.810538 -0.126082 0)
(0.807748 -0.119629 0)
(0.805325 -0.113151 0)
(0.803275 -0.106698 0)
(0.801612 -0.100326 0)
(0.800376 -0.0940906 0)
(0.79965 -0.0880538 0)
(0.799587 -0.082279 0)
(0.800427 -0.0768215 0)
(0.802461 -0.0717041 0)
(0.805893 -0.0668703 0)
(0.810567 -0.0621408 0)
(0.81566 -0.0572036 0)
(0.811623 -0.184402 0)
(0.80562 -0.177574 0)
(0.80004 -0.170376 0)
(0.794892 -0.162838 0)
(0.790236 -0.155018 0)
(0.786101 -0.146948 0)
(0.782506 -0.13868 0)
(0.779469 -0.130263 0)
(0.776989 -0.121744 0)
(0.775055 -0.113172 0)
(0.773638 -0.104588 0)
(0.772681 -0.0960284 0)
(0.772089 -0.087517 0)
(0.771687 -0.0790647 0)
(0.771187 -0.0706727 0)
(0.770155 -0.0623465 0)
(0.768056 -0.0541544 0)
(0.764524 -0.046286 0)
(0.75987 -0.0391256 0)
(0.786728 -0.209046 0)
(0.778983 -0.200828 0)
(0.771783 -0.191931 0)
(0.765248 -0.182531 0)
(0.759414 -0.172668 0)
(0.754322 -0.162447 0)
(0.750019 -0.151961 0)
(0.746518 -0.14131 0)
(0.743836 -0.130607 0)
(0.741967 -0.119968 0)
(0.740903 -0.109517 0)
(0.740631 -0.0993815 0)
(0.741156 -0.0896998 0)
(0.742526 -0.0806164 0)
(0.744891 -0.0722796 0)
(0.748566 -0.0648446 0)
(0.754092 -0.0584038 0)
(0.762021 -0.052942 0)
(0.77244 -0.048137 0)
(0.758545 -0.238488 0)
(0.748529 -0.228061 0)
(0.739325 -0.216876 0)
(0.730981 -0.204903 0)
(0.723608 -0.192277 0)
(0.717323 -0.17911 0)
(0.712172 -0.165519 0)
(0.708225 -0.151653 0)
(0.705501 -0.137647 0)
(0.704014 -0.123651 0)
(0.703744 -0.109799 0)
(0.704644 -0.0962194 0)
(0.706629 -0.0830174 0)
(0.709552 -0.0702689 0)
(0.713158 -0.0580231 0)
(0.717005 -0.0462599 0)
(0.720273 -0.0350113 0)
(0.721874 -0.0243278 0)
(0.720321 -0.0144833 0)
(0.728433 -0.271623 0)
(0.715274 -0.259267 0)
(0.703151 -0.245434 0)
(0.69222 -0.230417 0)
(0.682711 -0.214387 0)
(0.674688 -0.197491 0)
(0.66831 -0.179967 0)
(0.663621 -0.162012 0)
(0.660688 -0.143867 0)
(0.659513 -0.125768 0)
(0.660086 -0.107973 0)
(0.66236 -0.0907471 0)
(0.666269 -0.0743755 0)
(0.671746 -0.059172 0)
(0.678776 -0.045448 0)
(0.687443 -0.0336262 0)
(0.698302 -0.0239685 0)
(0.711976 -0.0168194 0)
(0.730309 -0.0124106 0)
(0.694919 -0.311878 0)
(0.677798 -0.296537 0)
(0.66186 -0.279287 0)
(0.64765 -0.260423 0)
(0.635234 -0.239996 0)
(0.624962 -0.218391 0)
(0.616909 -0.195823 0)
(0.611247 -0.17263 0)
(0.608017 -0.14911 0)
(0.607277 -0.125587 0)
(0.609023 -0.102381 0)
(0.613225 -0.0798075 0)
(0.619805 -0.0581731 0)
(0.62863 -0.0377252 0)
(0.639426 -0.0187266 0)
(0.651864 -0.00111365 0)
(0.664695 0.0149079 0)
(0.677196 0.0294348 0)
(0.685761 0.0427885 0)
(0.660686 -0.358145 0)
(0.637532 -0.339844 0)
(0.616609 -0.318969 0)
(0.597747 -0.295309 0)
(0.58164 -0.269638 0)
(0.568342 -0.24218 0)
(0.558177 -0.213444 0)
(0.551177 -0.183821 0)
(0.547479 -0.153733 0)
(0.547093 -0.123581 0)
(0.550049 -0.0937841 0)
(0.556327 -0.0647789 0)
(0.565877 -0.0370312 0)
(0.578582 -0.0111447 0)
(0.594386 0.0124162 0)
(0.612839 0.0324887 0)
(0.635158 0.0486314 0)
(0.660315 0.0596491 0)
(0.692046 0.0636119 0)
(0.622235 -0.413608 0)
(0.592754 -0.392045 0)
(0.565164 -0.365684 0)
(0.540964 -0.336234 0)
(0.52025 -0.303822 0)
(0.503587 -0.269251 0)
(0.490895 -0.233098 0)