/*--------------------------------*- C++ -*----------------------------------*\
  =========                 |
  \\      /  F ield         | OpenFOAM: The Open Source CFD Toolbox
   \\    /   O peration     | Website:  https://openfoam.org
    \\  /    A nd           | Version:  10
     \\/     M anipulation  |
\*---------------------------------------------------------------------------*/
FoamFile
{
    format      ascii;
    class       volVectorField;
    location    "0";
    object      U;
}
// * * * * * * * * * * * * * * * * * * * * * * * * * * * * * * * * * * * * * //

dimensions      [0 1 -1 0 0 0 0];

internalField   nonuniform List<vector> 
18483
(
(0.999992 -0.000203629 0)
(0.999993 -0.000714385 0)
(0.999994 -0.00110723 0)
(0.999995 -0.00150318 0)
(0.999997 -0.00184157 0)
(1 -0.00213006 0)
(1 -0.00235557 0)
(1.00001 -0.0025117 0)
(1.00001 -0.00259497 0)
(1.00001 -0.00260521 0)
(1.00002 -0.00254919 0)
(1.00003 -0.00244134 0)
(1.00003 -0.00230984 0)
(1.00003 -0.00221189 0)
(1.00003 -0.00220242 0)
(1.00001 -0.00228604 0)
(0.999924 -0.00238268 0)
(0.999478 -0.00238741 0)
(0.997955 -0.0022474 0)
(0.994634 -0.00198702 0)
(0.990346 -0.00176083 0)
(0.98778 -0.00172081 0)
(0.988492 -0.00176192 0)
(0.991189 -0.0017133 0)
(0.99396 -0.0015688 0)
(0.996011 -0.001382 0)
(0.997345 -0.00119322 0)
(0.998174 -0.00102219 0)
(0.998676 -0.00087449 0)
(1.00063 -0.000641758 0)
(1.00062 -0.00223928 0)
(1.00064 -0.00347218 0)
(1.00064 -0.00472233 0)
(1.00062 -0.0057915 0)
(1.00056 -0.00671129 0)
(1.00048 -0.00743854 0)
(1.00035 -0.00795581 0)
(1.00018 -0.00825388 0)
(0.999979 -0.00834029 0)
(0.99975 -0.0082419 0)
(0.999516 -0.0080144 0)
(0.999313 -0.00768492 0)
(0.999162 -0.00716598 0)
(0.999048 -0.00635105 0)
(0.998862 -0.00521134 0)
(0.998534 -0.00386623 0)
(0.99832 -0.00251239 0)
(0.999191 -0.0012802 0)
(1.00255 -0.000267649 0)
(1.00799 0.00060556 0)
(1.01189 0.00154317 0)
(1.0113 0.0024026 0)
(1.00768 0.00295016 0)
(1.00392 0.00324249 0)
(1.00122 0.00341862 0)
(0.999538 0.00356205 0)
(0.998517 0.00370885 0)
(0.997891 0.00386537 0)
(1.00192 -0.00108195 0)
(1.00193 -0.00376078 0)
(1.00199 -0.00584968 0)
(1.00199 -0.0079934 0)
(1.00195 -0.00984927 0)
(1.00181 -0.0114849 0)
(1.00156 -0.0128191 0)
(1.00121 -0.013823 0)
(1.00075 -0.0144742 0)
(1.00021 -0.0147777 0)
(0.999627 -0.0147466 0)
(0.999074 -0.0144008 0)
(0.998613 -0.0137891 0)
(0.998232 -0.0129966 0)
(0.997832 -0.0123005 0)
(0.997331 -0.012012 0)
(0.996672 -0.012123 0)
(0.995532 -0.0123907 0)
(0.992942 -0.0125137 0)
(0.987896 -0.0122178 0)
(0.981442 -0.01133 0)
(0.977465 -0.010114 0)
(0.978708 -0.00890314 0)
(0.98311 -0.00765826 0)
(0.987245 -0.00641853 0)
(0.989912 -0.00531554 0)
(0.991377 -0.00439005 0)
(0.992109 -0.00363475 0)
(0.992438 -0.00302646 0)
(1.00355 -0.0014843 0)
(1.0036 -0.00515328 0)
(1.00371 -0.008055 0)
(1.00375 -0.0110745 0)
(1.0037 -0.0137404 0)
(1.00349 -0.01616 0)
(1.0031 -0.0182085 0)
(1.00249 -0.0198401 0)
(1.00168 -0.0209997 0)
(1.00072 -0.0216614 0)
(0.999652 -0.0218193 0)
(0.998543 -0.0214946 0)
(0.997432 -0.0207933 0)
(0.996357 -0.0198645 0)
(0.995373 -0.0187049 0)
(0.994588 -0.0170528 0)
(0.993972 -0.0147297 0)
(0.99347 -0.0120236 0)
(0.993618 -0.0094608 0)
(0.995727 -0.00750507 0)
(0.999934 -0.00649395 0)
(1.00293 -0.00614164 0)
(1.00142 -0.00584178 0)
(0.996812 -0.00550704 0)
(0.992567 -0.00518969 0)
(0.989938 -0.00483492 0)
(0.988548 -0.0044396 0)
(0.987851 -0.00402533 0)
(0.98751 -0.00361177 0)
(1.00531 -0.00181792 0)
(1.00542 -0.00631664 0)
(1.00562 -0.00993187 0)
(1.00573 -0.013752 0)
(1.00572 -0.0172078 0)
(1.00548 -0.0204428 0)
(1.00495 -0.0232908 0)
(1.0041 -0.0256853 0)
(1.00294 -0.0275351 0)
(1.00148 -0.0287899 0)
(0.999787 -0.0294441 0)
(0.997933 -0.0295371 0)
(0.996004 -0.0291301 0)
(0.994125 -0.0282619 0)
(0.99238 -0.0269611 0)
(0.990722 -0.0255316 0)
(0.988994 -0.0244732 0)
(0.987059 -0.023889 0)
(0.984566 -0.0234744 0)
(0.980728 -0.0227928 0)
(0.975471 -0.0213812 0)
(0.971285 -0.0192657 0)
(0.971225 -0.0170884 0)
(0.974381 -0.0151543 0)
(0.977506 -0.0133562 0)
(0.979325 -0.0117444 0)
(0.980179 -0.0103517 0)
(0.980523 -0.00916125 0)
(0.980619 -0.00815435 0)
(1.00714 -0.00207409 0)
(1.00734 -0.00721921 0)
(1.00765 -0.0114237 0)
(1.00789 -0.0159395 0)
(1.00798 -0.020131 0)
(1.00778 -0.0241749 0)
(1.0072 -0.0278705 0)
(1.00618 -0.0311305 0)
(1.0047 -0.0338281 0)
(1.00279 -0.0358837 0)
(1.00053 -0.0372515 0)
(0.998047 -0.0379177 0)
(0.995486 -0.0378832 0)
(0.992961 -0.0371867 0)
(0.990523 -0.0359249 0)
(0.988221 -0.0341589 0)
(0.986228 -0.0317359 0)
(0.984757 -0.0285533 0)
(0.984098 -0.0250351 0)
(0.984796 -0.0219349 0)
(0.986992 -0.019824 0)
(0.98878 -0.0187925 0)
(0.987261 -0.0181469 0)
(0.982713 -0.0173345 0)
(0.978217 -0.0165054 0)
(0.975322 -0.0156981 0)
(0.973685 -0.0148796 0)
(0.972751 -0.0140762 0)
(0.972186 -0.0133039 0)
(1.00899 -0.00226091 0)
(1.0093 -0.00788563 0)
(1.00976 -0.0125587 0)
(1.01019 -0.0176589 0)
(1.01047 -0.0225112 0)
(1.0104 -0.0273253 0)
(1.00987 -0.0318741 0)
(1.00877 -0.0360528 0)
(1.00707 -0.0396932 0)
(1.00479 -0.0426697 0)
(1.00201 -0.0448761 0)
(0.99886 -0.0462489 0)
(0.995464 -0.0467911 0)
(0.991917 -0.0465582 0)
(0.988302 -0.0456045 0)
(0.984711 -0.0440754 0)
(0.981231 -0.042379 0)
(0.97794 -0.0409587 0)
(0.974835 -0.039833 0)
(0.971468 -0.0385869 0)
(0.967191 -0.0367429 0)
(0.962763 -0.0340573 0)
(0.960641 -0.0310016 0)
(0.961493 -0.0282822 0)
(0.963082 -0.0258227 0)
(0.963843 -0.0235313 0)
(0.963923 -0.0215022 0)
(0.963715 -0.0197292 0)
(0.963417 -0.0182005 0)
(1.01079 -0.00239464 0)
(1.01123 -0.00836741 0)
(1.01189 -0.0134067 0)
(1.01257 -0.0189902 0)
(1.0131 -0.0244216 0)
(1.01325 -0.0299458 0)
(1.01287 -0.0353197 0)
(1.01181 -0.0404259 0)
(1.00999 -0.0450592 0)
(1.00742 -0.0490531 0)
(1.00415 -0.0522652 0)
(1.00028 -0.0546056 0)
(0.995969 -0.0560532 0)
(0.991374 -0.0566324 0)
(0.986662 -0.0563872 0)
(0.981986 -0.0553974 0)
(0.977596 -0.0536526 0)
(0.973888 -0.0509825 0)
(0.971214 -0.0473445 0)
(0.969882 -0.0432249 0)
(0.97006 -0.039457 0)
(0.970795 -0.0367176 0)
(0.969638 -0.0349052 0)
(0.965574 -0.0332135 0)
(0.960739 -0.0315435 0)
(0.957174 -0.0300837 0)
(0.954898 -0.0287085 0)
(0.953387 -0.0274009 0)
(0.952325 -0.0261735 0)
(1.0125 -0.00249194 0)
(1.01308 -0.00871719 0)
(1.01398 -0.0140419 0)
(1.01495 -0.0200238 0)
(1.01579 -0.0259549 0)
(1.01625 -0.0321177 0)
(1.01611 -0.0382634 0)
(1.01519 -0.0442692 0)
(1.01339 -0.049904 0)
(1.01065 -0.0549709 0)
(1.00702 -0.0592892 0)
(1.00262 -0.0627126 0)
(0.997625 -0.0651403 0)
(0.992246 -0.0665302 0)
(0.986656 -0.0668796 0)
(0.981008 -0.0662329 0)
(0.975437 -0.0647765 0)
(0.970036 -0.0630184 0)
(0.96487 -0.061441 0)
(0.959822 -0.0599268 0)
(0.954481 -0.0579516 0)
(0.948958 -0.0550642 0)
(0.944813 -0.0513269 0)
(0.943471 -0.0476154 0)
(0.943746 -0.0443279 0)
(0.943703 -0.0412156 0)
(0.943071 -0.0383913 0)
(0.942257 -0.0359151 0)
(0.941465 -0.033762 0)
(1.01411 -0.00256574 0)
(1.01483 -0.00897562 0)
(1.01599 -0.014522 0)
(1.01728 -0.0208331 0)
(1.01847 -0.0271903 0)
(1.01929 -0.033916 0)
(1.01947 -0.0407645 0)
(1.01881 -0.0476164 0)
(1.01714 -0.0542254 0)
(1.01437 -0.0603688 0)
(1.01053 -0.0658215 0)
(1.00572 -0.070385 0)
(1.00007 -0.0739095 0)
(0.99377 -0.0763339 0)
(0.986978 -0.0776683 0)
(0.979872 -0.0779941 0)
(0.972685 -0.0774005 0)
(0.965823 -0.0757644 0)
(0.959869 -0.0727815 0)
(0.955336 -0.0685583 0)
(0.952556 -0.0638827 0)
(0.95125 -0.0598006 0)
(0.949579 -0.0568466 0)
(0.945595 -0.0543357 0)
(0.940131 -0.0517395 0)
(0.93551 -0.0493814 0)
(0.932345 -0.0472435 0)
(0.930097 -0.0452212 0)
(0.928408 -0.0433443 0)
(1.01561 -0.00262427 0)
(1.01646 -0.00917007 0)
(1.01786 -0.0148866 0)
(1.01949 -0.0214688 0)
(1.02107 -0.0281856 0)
(1.02229 -0.0353999 0)
(1.02287 -0.0428775 0)
(1.02254 -0.0505105 0)
(1.0211 -0.0580475 0)
(1.01843 -0.0652505 0)
(1.0145 -0.0718657 0)
(1.00936 -0.0776698 0)
(1.00312 -0.0824795 0)
(0.995992 -0.0861745 0)
(0.988207 -0.0886758 0)
(0.980033 -0.0899004 0)
(0.971742 -0.089763 0)
(0.963581 -0.0884329 0)
(0.955685 -0.0865765 0)
(0.948119 -0.0848225 0)
(0.940737 -0.0829859 0)
(0.933264 -0.0802801 0)
(0.926464 -0.0762755 0)
(0.922216 -0.0717693 0)
(0.920656 -0.0676712 0)
(0.919669 -0.0638048 0)
(0.918175 -0.0601462 0)
(0.916548 -0.0568866 0)
(0.915064 -0.0540114 0)
(1.01701 -0.00267195 0)
(1.01798 -0.00931806 0)
(1.01962 -0.0151626 0)
(1.02158 -0.0219646 0)
(1.02356 -0.0289817 0)
(1.02521 -0.0366157 0)
(1.02623 -0.0446492 0)
(1.02631 -0.0529928 0)
(1.02521 -0.0613989 0)
(1.02276 -0.0696266 0)
(1.01889 -0.0774055 0)
(1.01362 -0.0844863 0)
(1.00707 -0.090632 0)
(0.999434 -0.0956339 0)
(0.99092 -0.0993391 0)
(0.981712 -0.101672 0)
(0.971931 -0.102653 0)
(0.961843 -0.102404 0)
(0.952142 -0.100836 0)
(0.943766 -0.0975892 0)
(0.937317 -0.0928907 0)
(0.932872 -0.0879547 0)
(0.929377 -0.0839782 0)
(0.924596 -0.0807208 0)
(0.917884 -0.077267 0)
(0.911397 -0.0738545 0)
(0.906686 -0.0707787 0)
(0.903287 -0.0678588 0)
(0.900651 -0.0651288 0)
(1.01832 -0.00271029 0)
(1.01941 -0.00943038 0)
(1.02126 -0.0153689 0)
(1.02354 -0.022344 0)
(1.02591 -0.0296082 0)
(1.02801 -0.0375985 0)
(1.0295 -0.0461169 0)
(1.03005 -0.0550964 0)
(1.02938 -0.0643009 0)
(1.02727 -0.0734949 0)
(1.02362 -0.082397 0)
(1.01841 -0.0907337 0)
(1.01172 -0.0982398 0)
(1.00365 -0.104678 0)
(0.994344 -0.10988 0)
(0.98396 -0.113751 0)
(0.972747 -0.116163 0)
(0.961167 -0.116951 0)
(0.949851 -0.116274 0)
(0.939099 -0.114877 0)
(0.92873 -0.113357 0)
(0.918368 -0.111187 0)
(0.908195 -0.107358 0)
(0.900041 -0.102163 0)
(0.89552 -0.0970302 0)
(0.893016 -0.092268 0)
(0.89028 -0.0875798 0)
(0.887364 -0.0832762 0)
(0.884768 -0.0794422 0)
(1.01954 -0.0027395 0)
(1.02076 -0.00951297 0)
(1.02279 -0.0155196 0)
(1.02536 -0.0226257 0)
(1.02812 -0.0300883 0)
(1.03067 -0.0383771 0)
(1.03266 -0.0473134 0)
(1.03371 -0.0568551 0)
(1.03352 -0.0667842 0)
(1.03184 -0.0768767 0)
(1.02851 -0.0868505 0)
(1.02346 -0.0964264 0)
(1.01673 -0.105338 0)
(1.00836 -0.113337 0)
(0.998504 -0.120184 0)
(0.987356 -0.12566 0)
(0.975171 -0.129548 0)
(0.96226 -0.131736 0)
(0.949146 -0.132275 0)
(0.93669 -0.131021 0)
(0.925807 -0.127641 0)
(0.917018 -0.12264 0)
(0.910088 -0.117701 0)
(0.903312 -0.113731 0)
(0.894723 -0.109677 0)
(0.885398 -0.105166 0)
(0.878047 -0.100934 0)
(0.872794 -0.0969043 0)
(0.868682 -0.0930212 0)
(1.02067 -0.00275981 0)
(1.02201 -0.00956865 0)
(1.02422 -0.0156242 0)
(1.02705 -0.0228259 0)
(1.03018 -0.0304426 0)
(1.03317 -0.0389779 0)
(1.03565 -0.0482711 0)
(1.03723 -0.0583063 0)
(1.03756 -0.0688877 0)
(1.03636 -0.0798075 0)
(1.03344 -0.0907913 0)
(1.02869 -0.101563 0)
(1.02212 -0.111852 0)
(1.01377 -0.121386 0)
(1.00374 -0.129879 0)
(0.992123 -0.137081 0)
(0.979015 -0.142815 0)
(0.964702 -0.146928 0)
(0.949853 -0.149267 0)
(0.935214 -0.149998 0)
(0.920945 -0.149788 0)
(0.906659 -0.148885 0)
(0.892124 -0.146241 0)
(0.878752 -0.140999 0)
(0.869394 -0.134637 0)
(0.864083 -0.128658 0)
(0.859501 -0.122659 0)
(0.854546 -0.116831 0)
(0.850118 -0.111591 0)
(1.02171 -0.00277205 0)
(1.02316 -0.00959932 0)
(1.02554 -0.0156891 0)
(1.02862 -0.0229586 0)
(1.03208 -0.0306906 0)
(1.0355 -0.0394265 0)
(1.03847 -0.049022 0)
(1.04058 -0.0594862 0)
(1.04146 -0.0706481 0)
(1.0408 -0.0823166 0)
(1.03838 -0.0942276 0)
(1.03408 -0.106109 0)
(1.02786 -0.11769 0)
(1.01974 -0.128706 0)
(1.0097 -0.13889 0)
(0.997723 -0.148011 0)
(0.983907 -0.15584 0)
(0.96861 -0.162093 0)
(0.952454 -0.166464 0)
(0.936117 -0.168669 0)
(0.920364 -0.168214 0)
(0.90601 -0.164831 0)
(0.893761 -0.159757 0)
(0.883256 -0.155196 0)
(0.871933 -0.151044 0)
(0.858694 -0.145788 0)
(0.846854 -0.140172 0)
(0.838346 -0.134808 0)
(0.831787 -0.1294 0)
(1.02264 -0.00277743 0)
(1.0242 -0.00960745 0)
(1.02676 -0.0157189 0)
(1.03006 -0.0230352 0)
(1.03384 -0.0308504 0)
(1.03767 -0.0397466 0)
(1.04111 -0.0495947 0)
(1.04375 -0.0604274 0)
(1.04519 -0.0720984 0)
(1.0451 -0.0844329 0)
(1.04325 -0.0971792 0)
(1.03947 -0.110074 0)
(1.0337 -0.122862 0)
(1.02589 -0.135308 0)
(1.016 -0.147174 0)
(1.004 -0.158217 0)
(0.989981 -0.168174 0)
(0.974165 -0.176753 0)
(0.956943 -0.183636 0)
(0.938799 -0.188551 0)
(0.920107 -0.191678 0)
(0.900871 -0.193583 0)
(0.880945 -0.193772 0)
(0.861015 -0.190371 0)
(0.844255 -0.18353 0)
(0.833483 -0.17609 0)
(0.825839 -0.168697 0)
(0.817767 -0.160868 0)
(0.810219 -0.153537 0)
(1.02348 -0.00277729 0)
(1.02513 -0.00959649 0)
(1.02785 -0.0157182 0)
(1.03138 -0.0230644 0)
(1.03546 -0.0309377 0)
(1.03967 -0.0399599 0)
(1.04356 -0.0500158 0)
(1.04672 -0.0611614 0)
(1.04873 -0.0732751 0)
(1.04923 -0.0861981 0)
(1.04794 -0.0996929 0)
(1.04471 -0.11351 0)
(1.03944 -0.127407 0)
(1.03209 -0.141176 0)
(1.02262 -0.1546 0)
(1.01097 -0.167462 0)
(0.99711 -0.179566 0)
(0.981097 -0.190678 0)
(0.963187 -0.200406 0)
(0.943795 -0.208136 0)
(0.923512 -0.213014 0)
(0.90325 -0.214027 0)
(0.88417 -0.211167 0)
(0.867477 -0.206895 0)
(0.851833 -0.203429 0)
(0.83367 -0.198819 0)
(0.814738 -0.192091 0)
(0.800143 -0.185154 0)
(0.789317 -0.177919 0)
(1.02423 -0.00277289 0)
(1.02597 -0.00957042 0)
(1.02884 -0.0156921 0)
(1.03258 -0.0230541 0)
(1.03696 -0.030966 0)
(1.04152 -0.0400855 0)
(1.04584 -0.0503101 0)
(1.0495 -0.0617196 0)
(1.05205 -0.0742164 0)
(1.05312 -0.0876574 0)
(1.05242 -0.101818 0)
(1.04976 -0.116458 0)
(1.04508 -0.131344 0)
(1.03833 -0.146285 0)
(1.02946 -0.16111 0)
(1.01837 -0.175679 0)
(1.00493 -0.189888 0)
(0.989139 -0.203536 0)
(0.971104 -0.216182 0)
(0.950942 -0.22718 0)
(0.928777 -0.236055 0)
(0.904703 -0.243171 0)
(0.878863 -0.248882 0)
(0.85162 -0.251099 0)
(0.824926 -0.246924 0)
(0.804093 -0.238673 0)
(0.790359 -0.230117 0)
(0.77761 -0.220457 0)
(0.764628 -0.210279 0)
(1.0249 -0.00276533 0)
(1.02671 -0.00953319 0)
(1.02973 -0.0156462 0)
(1.03367 -0.0230119 0)
(1.03832 -0.0309469 0)
(1.04321 -0.0401407 0)
(1.04795 -0.0505008 0)
(1.05208 -0.0621315 0)
(1.05515 -0.0749579 0)
(1.05678 -0.0888505 0)
(1.05666 -0.103595 0)
(1.05462 -0.118957 0)
(1.05057 -0.134706 0)
(1.04448 -0.150676 0)
(1.03628 -0.166751 0)
(1.02587 -0.18287 0)
(1.01316 -0.199014 0)
(0.998052 -0.215053 0)
(0.980408 -0.23063 0)
(0.960077 -0.245149 0)
(0.937111 -0.257693 0)
(0.91206 -0.266756 0)
(0.886179 -0.270548 0)
(0.861255 -0.269593 0)
(0.838559 -0.268173 0)
(0.814561 -0.266982 0)
(0.786197 -0.261551 0)
(0.760428 -0.253243 0)
(0.741647 -0.244297 0)
(1.0255 -0.00275555 0)
(1.02738 -0.0094882 0)
(1.03052 -0.0155859 0)
(1.03465 -0.0229455 0)
(1.03955 -0.0308912 0)
(1.04476 -0.04014 0)
(1.04988 -0.0506077 0)
(1.05446 -0.0624226 0)
(1.05803 -0.0755297 0)
(1.06021 -0.089812 0)
(1.06067 -0.105063 0)
(1.05924 -0.121054 0)
(1.05582 -0.137557 0)
(1.05038 -0.154425 0)
(1.04289 -0.171584 0)
(1.03331 -0.18904 0)
(1.02159 -0.206873 0)
(1.00751 -0.225085 0)
(0.990728 -0.243433 0)
(0.97091 -0.2614 0)
(0.947781 -0.278189 0)
(0.920987 -0.293273 0)
(0.890449 -0.307375 0)
(0.856449 -0.32005 0)
(0.819268 -0.32574 0)
(0.78328 -0.320903 0)
(0.756624 -0.311967 0)
(0.736404 -0.302053 0)
(0.714906 -0.289068 0)
(1.02604 -0.00274429 0)
(1.02798 -0.00943821 0)
(1.03124 -0.015516 0)
(1.03552 -0.0228618 0)
(1.04066 -0.0308084 0)
(1.04616 -0.0400966 0)
(1.05164 -0.0506482 0)
(1.05664 -0.0626152 0)
(1.06069 -0.0759594 0)
(1.06339 -0.090576 0)
(1.06441 -0.106267 0)
(1.06356 -0.122806 0)
(1.06074 -0.139965 0)
(1.05594 -0.157603 0)
(1.04921 -0.175672 0)
(1.04057 -0.19424 0)
(1.02998 -0.213503 0)
(1.01717 -0.233609 0)
(1.00165 -0.254448 0)
(0.982948 -0.275696 0)
(0.960571 -0.29677 0)
(0.934091 -0.316428 0)
(0.904057 -0.332209 0)
(0.871878 -0.341085 0)
(0.839487 -0.344689 0)
(0.807498 -0.349898 0)
(0.769535 -0.352686 0)
(0.726384 -0.346032 0)
(0.691573 -0.335961 0)
(1.02652 -0.00273214 0)
(1.02852 -0.00938543 0)
(1.03188 -0.0154404 0)
(1.03631 -0.0227669 0)
(1.04167 -0.0307069 0)
(1.04742 -0.0400217 0)
(1.05323 -0.050637 0)
(1.05862 -0.0627286 0)
(1.06313 -0.0762721 0)
(1.06632 -0.0911754 0)
(1.06787 -0.107247 0)
(1.06756 -0.124262 0)
(1.06532 -0.141986 0)
(1.06117 -0.160271 0)
(1.05521 -0.179091 0)
(1.04752 -0.198568 0)
(1.0381 -0.218998 0)
(1.02671 -0.240668 0)
(1.01281 -0.263629 0)
(0.995755 -0.28775 0)
(0.974974 -0.312698 0)
(0.949505 -0.337699 0)
(0.918227 -0.362482 0)
(0.880757 -0.3886 0)
(0.836417 -0.413821 0)
(0.784459 -0.425582 0)
(0.734531 -0.420596 0)
(0.698104 -0.412359 0)
(0.665193 -0.399847 0)
(1.02695 -0.00271957 0)
(1.029 -0.00933166 0)
(1.03245 -0.0153621 0)
(1.03701 -0.0226658 0)
(1.04256 -0.0305937 0)
(1.04855 -0.0399247 0)
(1.05467 -0.0505873 0)
(1.06042 -0.0627803 0)
(1.06534 -0.0764907 0)
(1.069 -0.0916394 0)
(1.07103 -0.108039 0)
(1.07125 -0.125465 0)
(1.06957 -0.143671 0)
(1.06605 -0.162499 0)
(1.06082 -0.181933 0)
(1.05404 -0.202138 0)
(1.0458 -0.223483 0)
(1.03592 -0.246373 0)
(1.02384 -0.271046 0)
(1.00883 -0.297582 0)
(0.990215 -0.325998 0)
(0.967001 -0.356049 0)
(0.938158 -0.386269 0)
(0.903743 -0.412628 0)
(0.864282 -0.430119 0)
(0.821765 -0.443517 0)
(0.774843 -0.463139 0)
(0.712986 -0.472234 0)
(0.64706 -0.462918 0)
(1.02733 -0.00270697 0)
(1.02942 -0.00927835 0)
(1.03295 -0.0152836 0)
(1.03764 -0.0225622 0)
(1.04336 -0.0304744 0)
(1.04956 -0.0398135 0)
(1.05596 -0.0505102 0)
(1.06204 -0.0627852 0)
(1.06735 -0.0766346 0)
(1.07143 -0.091992 0)
(1.07393 -0.108674 0)
(1.07463 -0.126452 0)
(1.07349 -0.145069 0)
(1.07055 -0.164352 0)
(1.066 -0.184285 0)
(1.06008 -0.205058 0)
(1.053 -0.22709 0)
(1.04462 -0.25088 0)
(1.03443 -0.276848 0)
(1.02175 -0.305311 0)
(1.00579 -0.336497 0)
(0.985729 -0.370574 0)
(0.959933 -0.407213 0)
(0.925313 -0.446654 0)
(0.880668 -0.493072 0)
(0.823799 -0.5422 0)
(0.748525 -0.565906 0)
(0.672862 -0.562008 0)
(0.616811 -0.555449 0)
(1.02767 -0.00269462 0)
(1.0298 -0.00922664 0)
(1.0334 -0.0152068 0)
(1.0382 -0.0224592 0)
(1.04407 -0.0303533 0)
(1.05047 -0.0396945 0)
(1.05712 -0.0504149 0)
(1.0635 -0.0627557 0)
(1.06915 -0.0767202 0)
(1.07363 -0.0922546 0)
(1.07655 -0.109178 0)
(1.07772 -0.127259 0)
(1.07705 -0.146227 0)
(1.07464 -0.165891 0)
(1.07072 -0.186226 0)
(1.06561 -0.207428 0)
(1.05963 -0.229956 0)
(1.05268 -0.254377 0)
(1.04435 -0.281244 0)
(1.03413 -0.311128 0)
(1.02118 -0.344462 0)
(1.00456 -0.381793 0)
(0.983307 -0.423983 0)
(0.955115 -0.4698 0)
(0.917615 -0.512413 0)
(0.870216 -0.543684 0)
(0.815412 -0.579536 0)
(0.741365 -0.63399 0)
(0.629445 -0.64951 0)
(1.02796 -0.00268275 0)
(1.03013 -0.00917735 0)
(1.0338 -0.015133 0)
(1.03869 -0.0223591 0)
(1.04471 -0.0302339 0)
(1.05127 -0.0395725 0)
(1.05815 -0.0503087 0)
(1.0648 -0.0627018 0)
(1.07077 -0.0767613 0)
(1.07561 -0.092445 0)
(1.07893 -0.109576 0)
(1.0805 -0.127915 0)
(1.08028 -0.147183 0)
(1.07835 -0.167167 0)
(1.07499 -0.187821 0)
(1.07063 -0.209341 0)
(1.06565 -0.232207 0)
(1.06005 -0.257038 0)
(1.05348 -0.284468 0)
(1.04565 -0.315277 0)
(1.03591 -0.35019 0)
(1.0231 -0.389791 0)
(1.00693 -0.435369 0)
(0.985315 -0.48816 0)
(0.949953 -0.548935 0)
(0.899585 -0.629145 0)
(0.834442 -0.730892 0)
(0.717894 -0.788585 0)
(0.566733 -0.783866 0)
(1.02823 -0.00267151 0)
(1.03042 -0.00913108 0)
(1.03415 -0.0150633 0)
(1.03913 -0.0222638 0)
(1.04526 -0.0301187 0)
(1.05198 -0.0394516 0)
(1.05907 -0.0501973 0)
(1.06596 -0.0626318 0)
(1.07222 -0.0767694 0)
(1.07738 -0.0925793 0)
(1.08105 -0.109887 0)
(1.083 -0.128449 0)
(1.08318 -0.147973 0)
(1.08168 -0.168223 0)
(1.07884 -0.189132 0)
(1.07514 -0.210883 0)
(1.07106 -0.233962 0)
(1.0667 -0.259027 0)
(1.06177 -0.286766 0)
(1.05613 -0.318069 0)
(1.04955 -0.353968 0)
(1.04086 -0.39517 0)
(1.02935 -0.442877 0)
(1.01521 -0.50084 0)
(0.994691 -0.570416 0)
(0.960636 -0.637388 0)
(0.907535 -0.68841 0)
(0.840558 -0.786151 0)
(0.694701 -0.934449 0)
(1.02846 -0.002661 0)
(1.03068 -0.00908818 0)
(1.03446 -0.0149982 0)
(1.03951 -0.0221742 0)
(1.04575 -0.0300096 0)
(1.05261 -0.0393344 0)
(1.05988 -0.0500851 0)
(1.06698 -0.0625519 0)
(1.0735 -0.0767538 0)
(1.07895 -0.09267 0)
(1.08295 -0.110128 0)
(1.08524 -0.128882 0)
(1.08577 -0.148624 0)
(1.08467 -0.169096 0)
(1.08228 -0.190207 0)
(1.07916 -0.212122 0)
(1.07587 -0.235318 0)
(1.07261 -0.260476 0)
(1.06919 -0.288334 0)
(1.06554 -0.319812 0)
(1.0618 -0.356133 0)
(1.05726 -0.398337 0)
(1.05068 -0.447206 0)
(1.04372 -0.506351 0)
(1.03585 -0.580722 0)
(1.009 -0.666786 0)
(0.961755 -0.794484 0)
(0.909517 -1.02926 0)
(0.665443 -1.14371 0)
(0.99897 -0.000747917 0)
(0.999132 -0.000628683 0)
(0.999178 -0.000505637 0)
(0.999093 -0.000378321 0)
(0.99885 -0.000245998 0)
(0.998417 -0.000107558 0)
(0.997753 3.7965e-05 0)
(0.996821 0.000191124 0)
(0.995593 0.000351832 0)
(0.994057 0.000519137 0)
(0.992234 0.000691092 0)
(0.990177 0.000864809 0)
(0.987983 0.0010367 0)
(0.985786 0.00120292 0)
(0.983749 0.00135994 0)
(0.982044 0.0015051 0)
(0.980831 0.0016371 0)
(0.980231 0.00175618 0)
(0.980306 0.00186408 0)
(0.997498 0.0040253 0)
(0.997233 0.00418899 0)
(0.997066 0.00436087 0)
(0.997001 0.00453804 0)
(0.997062 0.00471849 0)
(0.997284 0.00489887 0)
(0.997712 0.00507475 0)
(0.998398 0.00524094 0)
(0.999392 0.0053919 0)
(1.00073 0.00552226 0)
(1.00242 0.00562746 0)
(1.00443 0.00570441 0)
(1.00667 0.00575205 0)
(1.00902 0.00577157 0)
(1.01129 0.00576645 0)
(1.0133 0.00574199 0)
(1.01484 0.00570479 0)
(1.01575 0.00566198 0)
(1.01594 0.0056206 0)
(0.992549 -0.00253154 0)
(0.992543 -0.00208794 0)
(0.992445 -0.00165384 0)
(0.992267 -0.00122761 0)
(0.992011 -0.000808444 0)
(0.991669 -0.000394243 0)
(0.991229 1.78416e-05 0)
(0.990672 0.000431199 0)
(0.989978 0.000849692 0)
(0.98913 0.00127733 0)
(0.988122 0.00171777 0)
(0.986968 0.00217368 0)
(0.985705 0.00264622 0)
(0.984403 0.00313474 0)
(0.983155 0.0036368 0)
(0.982076 0.00414867 0)
(0.981279 0.0046662 0)
(0.980858 0.00518578 0)
(0.980869 0.0057051 0)
(0.987348 -0.00321672 0)
(0.987279 -0.00283098 0)
(0.987277 -0.00243939 0)
(0.987343 -0.0020453 0)
(0.987485 -0.00164851 0)
(0.987726 -0.00124863 0)
(0.988093 -0.00084492 0)
(0.988624 -0.000435882 0)
(0.989353 -1.90658e-05 0)
(0.990313 0.000409242 0)
(0.99152 0.00085437 0)
(0.992965 0.00132349 0)
(0.994604 0.00182552 0)
(0.996349 0.00237046 0)
(0.998075 0.00296805 0)
(0.999622 0.00362571 0)
(1.00082 0.00434612 0)
(1.00152 0.00512505 0)
(1.00161 0.0059501 0)
(0.980594 -0.0072959 0)
(0.9805 -0.00649537 0)
(0.980346 -0.00568386 0)
(0.98013 -0.00486019 0)
(0.979845 -0.00402443 0)
(0.979473 -0.00317536 0)
(0.978991 -0.00231152 0)
(0.978367 -0.00143188 0)
(0.977564 -0.00053631 0)
(0.976543 0.000373553 0)
(0.975271 0.00129324 0)
(0.973732 0.00221441 0)
(0.97194 0.00312429 0)
(0.969952 0.00400582 0)
(0.967879 0.00483914 0)
(0.965885 0.0056045 0)
(0.964172 0.00628636 0)
(0.962952 0.00687789 0)
(0.962405 0.00738461 0)
(0.971817 -0.0125798 0)
(0.971542 -0.0118775 0)
(0.971319 -0.0111655 0)
(0.971139 -0.0104499 0)
(0.971005 -0.00973255 0)
(0.970932 -0.00901615 0)
(0.970945 -0.00830375 0)
(0.971083 -0.00759817 0)
(0.971399 -0.00690144 0)
(0.971953 -0.00621376 0)
(0.972813 -0.00553207 0)
(0.974031 -0.00484843 0)
(0.975638 -0.00414855 0)
(0.977611 -0.00341101 0)
(0.979862 -0.00260816 0)
(0.98222 -0.00170921 0)
(0.984445 -0.000685885 0)
(0.986249 0.000479978 0)
(0.987354 0.00178882 0)
(0.96311 -0.0168796 0)
(0.962803 -0.015637 0)
(0.962487 -0.0143704 0)
(0.962165 -0.0130818 0)
(0.961833 -0.0117747 0)
(0.961482 -0.0104509 0)
(0.961088 -0.00911134 0)
(0.960619 -0.0077564 0)
(0.960023 -0.00638592 0)
(0.95923 -0.00499969 0)
(0.958155 -0.00359881 0)
(0.956705 -0.00218773 0)
(0.954798 -0.000776794 0)
(0.952393 0.000615331 0)
(0.949518 0.00196045 0)
(0.946312 0.00322219 0)
(0.943038 0.00436112 0)
(0.940073 0.00534358 0)
(0.937857 0.0061528 0)
(0.951538 -0.0250348 0)
(0.950894 -0.023934 0)
(0.950328 -0.0228163 0)
(0.949833 -0.0216887 0)
(0.949408 -0.0205524 0)
(0.949059 -0.0194097 0)
(0.9488 -0.0182641 0)
(0.948653 -0.0171197 0)
(0.948659 -0.0159816 0)
(0.948875 -0.0148556 0)
(0.949383 -0.0137474 0)
(0.950286 -0.0126599 0)
(0.951693 -0.0115908 0)
(0.953694 -0.0105279 0)
(0.95632 -0.00944529 0)
(0.959493 -0.00830102 0)
(0.962986 -0.00703962 0)
(0.966411 -0.00560117 0)
(0.969259 -0.00393719 0)
(0.94076 -0.0318898 0)
(0.940114 -0.0301206 0)
(0.939496 -0.0283115 0)
(0.938918 -0.026465 0)
(0.938382 -0.0245851 0)
(0.937888 -0.0226737 0)
(0.937427 -0.0207325 0)
(0.936982 -0.0187625 0)
(0.936516 -0.0167634 0)
(0.935973 -0.0147334 0)
(0.935262 -0.0126692 0)
(0.93426 -0.0105671 0)
(0.932806 -0.00842553 0)
(0.930728 -0.00625008 0)
(0.927877 -0.00405921 0)
(0.924197 -0.00189011 0)
(0.919803 0.00019957 0)
(0.915056 0.00213773 0)
(0.910572 0.00385399 0)
(0.92709 -0.0416185 0)
(0.925967 -0.0399528 0)
(0.924941 -0.0382567 0)
(0.924008 -0.0365382 0)
(0.923168 -0.0347985 0)
(0.922423 -0.0330391 0)
(0.921777 -0.0312625 0)
(0.92124 -0.029471 0)
(0.920827 -0.0276681 0)
(0.92057 -0.0258585 0)
(0.920522 -0.024049 0)
(0.920777 -0.0222485 0)
(0.921469 -0.020467 0)
(0.922774 -0.0187117 0)
(0.924877 -0.0169799 0)
(0.92791 -0.0152504 0)
(0.931859 -0.013474 0)
(0.936453 -0.0115713 0)
(0.941111 -0.00944446 0)
(0.913771 -0.0514758 0)
(0.912597 -0.0490582 0)
(0.911479 -0.0465715 0)
(0.910429 -0.0440198 0)
(0.909456 -0.0414065 0)
(0.908562 -0.038733 0)
(0.907746 -0.0360005 0)
(0.906999 -0.0332105 0)
(0.906304 -0.0303647 0)
(0.905631 -0.0274641 0)
(0.904927 -0.0245086 0)
(0.904104 -0.0214957 0)
(0.903022 -0.018421 0)
(0.90148 -0.015279 0)
(0.899221 -0.0120693 0)
(0.895974 -0.00880546 0)
(0.891557 -0.00552832 0)
(0.886031 -0.00231423 0)
(0.87987 0.000729706 0)
(0.89855 -0.0626204 0)
(0.896724 -0.0601869 0)
(0.895025 -0.0576884 0)
(0.893444 -0.0551376 0)
(0.891981 -0.0525401 0)
(0.890638 -0.0499018 0)
(0.889416 -0.0472288 0)
(0.888319 -0.0445273 0)
(0.887355 -0.0418029 0)
(0.886537 -0.0390606 0)
(0.88589 -0.0363056 0)
(0.885464 -0.033544 0)
(0.885352 -0.0307837 0)
(0.885706 -0.0280354 0)
(0.886755 -0.0253096 0)
(0.888774 -0.0226091 0)
(0.892011 -0.0199145 0)
(0.896517 -0.0171659 0)
(0.90194 -0.014254 0)
(0.882528 -0.0760089 0)
(0.880496 -0.0727083 0)
(0.878556 -0.0692967 0)
(0.876728 -0.0657819 0)
(0.875024 -0.0621662 0)
(0.87345 -0.058449 0)
(0.872006 -0.0546294 0)
(0.870687 -0.0507064 0)
(0.86948 -0.0466796 0)
(0.868364 -0.0425496 0)
(0.867306 -0.038318 0)
(0.86625 -0.033988 0)
(0.86511 -0.0295631 0)
(0.863738 -0.0250474 0)
(0.861903 -0.0204459 0)
(0.859277 -0.0157699 0)
(0.855469 -0.0110499 0)
(0.85018 -0.0063553 0)
(0.843472 -0.00180866 0)
(0.86537 -0.0894113 0)
(0.86248 -0.0858603 0)
(0.859773 -0.0821599 0)
(0.857238 -0.0783347 0)
(0.854871 -0.0744003 0)
(0.85267 -0.0703745 0)
(0.850635 -0.0662768 0)
(0.848768 -0.062128 0)
(0.847074 -0.0579496 0)
(0.845562 -0.0537636 0)
(0.844253 -0.0495921 0)
(0.843184 -0.0454565 0)
(0.84242 -0.0413773 0)
(0.842078 -0.0373742 0)
(0.842352 -0.0334649 0)
(0.843537 -0.0296622 0)
(0.846015 -0.0259617 0)
(0.850129 -0.0223183 0)
(0.855901 -0.018616 0)
(0.846338 -0.106829 0)
(0.842908 -0.102202 0)
(0.839643 -0.0973934 0)
(0.836576 -0.0924197 0)
(0.83373 -0.087291 0)
(0.831124 -0.0820136 0)
(0.828767 -0.0765938 0)
(0.826666 -0.0710386 0)
(0.82482 -0.0653542 0)
(0.823221 -0.0595465 0)
(0.821851 -0.053621 0)
(0.820673 -0.0475824 0)
(0.819625 -0.0414354 0)
(0.818597 -0.035185 0)
(0.8174 -0.0288376 0)
(0.815719 -0.0224036 0)
(0.813073 -0.0159107 0)
(0.808872 -0.00942695 0)
(0.802659 -0.00309025 0)
(0.826445 -0.124209 0)
(0.821814 -0.119007 0)
(0.817502 -0.113476 0)
(0.813502 -0.107672 0)
(0.809824 -0.101631 0)
(0.806472 -0.0953935 0)
(0.803456 -0.0890048 0)
(0.800778 -0.0825123 0)
(0.798442 -0.0759671 0)
(0.79645 -0.0694221 0)
(0.794807 -0.0629332 0)
(0.793528 -0.0565575 0)
(0.792647 -0.0503525 0)
(0.792236 -0.0443751 0)
(0.792434 -0.038677 0)
(0.793497 -0.0333052 0)
(0.795843 -0.0282847 0)
(0.80001 -0.0235965 0)
(0.806459 -0.0191405 0)
(0.80388 -0.146794 0)
(0.798136 -0.140082 0)
(0.792708 -0.133016 0)
(0.787675 -0.125617 0)
(0.78308 -0.117919 0)
(0.77897 -0.109956 0)
(0.775373 -0.101764 0)
(0.772315 -0.0933855 0)
(0.769805 -0.0848608 0)
(0.767851 -0.0762299 0)
(0.766443 -0.067528 0)
(0.765557 -0.0587839 0)
(0.765146 -0.0500194 0)
(0.765123 -0.0412477 0)
(0.765329 -0.0324807 0)
(0.765481 -0.0237207 0)
(0.765064 -0.0149909 0)
(0.763317 -0.00636499 0)
(0.759225 0.00201935 0)
(0.780368 -0.170458 0)
(0.772622 -0.162776 0)
(0.765471 -0.154373 0)
(0.75891 -0.145364 0)
(0.753008 -0.135833 0)
(0.747802 -0.125865 0)
(0.743334 -0.115555 0)
(0.73963 -0.105004 0)
(0.736707 -0.0943189 0)
(0.734568 -0.0836147 0)
(0.733204 -0.0730145 0)
(0.732602 -0.062649 0)
(0.732749 -0.0526573 0)
(0.733656 -0.0431879 0)
(0.735379 -0.0343815 0)
(0.738072 -0.0263942 0)
(0.742135 -0.019338 0)
(0.74814 -0.0132508 0)
(0.756947 -0.00813278 0)
(0.753664 -0.200748 0)
(0.743798 -0.190895 0)
(0.734469 -0.180203 0)
(0.725939 -0.168749 0)
(0.718288 -0.156578 0)
(0.711639 -0.143803 0)
(0.706061 -0.130534 0)
(0.701628 -0.116907 0)
(0.698374 -0.103059 0)
(0.696326 -0.0891367 0)
(0.695485 -0.0752768 0)
(0.695833 -0.0616061 0)
(0.697322 -0.0482301 0)
(0.699861 -0.0352177 0)
(0.703288 -0.0226287 0)
(0.707356 -0.0104388 0)
(0.711433 0.00134849 0)
(0.714714 0.012647 0)
(0.715712 0.0234158 0)
(0.726306 -0.233959 0)
(0.712726 -0.222617 0)
(0.700302 -0.209807 0)
(0.688943 -0.195608 0)
(0.678891 -0.180276 0)
(0.670259 -0.163972 0)
(0.663191 -0.146912 0)
(0.657756 -0.12931 0)
(0.654031 -0.111399 0)
(0.652036 -0.0934108 0)
(0.651769 -0.0755947 0)
(0.653191 -0.0582074 0)
(0.65624 -0.0415184 0)
(0.66083 -0.0258373 0)
(0.66691 -0.0114451 0)
(0.674378 0.00123633 0)
(0.68369 0.0118836 0)
(0.695199 0.0202999 0)
(0.710011 0.0260432 0)
(0.695269 -0.275788 0)
(0.677971 -0.2617 0)
(0.661454 -0.245486 0)
(0.646487 -0.227598 0)
(0.633263 -0.208072 0)
(0.622059 -0.187194 0)
(0.613008 -0.165248 0)
(0.606288 -0.142541 0)
(0.601949 -0.119387 0)
(0.600054 -0.0961134 0)
(0.600608 -0.07304 0)
(0.603589 -0.0504873 0)
(0.608935 -0.0287708 0)
(0.616547 -0.00812984 0)
(0.626179 0.0111344 0)
(0.637777 0.0290591 0)
(0.650225 0.0455748 0)
(0.662917 0.0605742 0)
(0.674036 0.0745555 0)
(0.665135 -0.323178 0)
(0.640977 -0.306646 0)
(0.618963 -0.28729 0)
(0.599065 -0.265 0)
(0.581717 -0.240346 0)
(0.567147 -0.213812 0)
(0.555674 -0.185808 0)
(0.547317 -0.156787 0)
(0.542234 -0.12718 0)
(0.540432 -0.0973932 0)
(0.541935 -0.067844 0)
(0.546725 -0.0389569 0)
(0.554754 -0.0111622 0)
(0.565893 0.0149659 0)
(0.580161 0.0390395 0)
(0.596808 0.0600371 0)
(0.616912 0.0773625 0)
(0.639788 0.0903112 0)
(0.666766 0.0968237 0)
(0.630353 -0.381474 0)
(0.599492 -0.361602 0)