/*--------------------------------*- C++ -*----------------------------------*\
  =========                 |
  \\      /  F ield         | OpenFOAM: The Open Source CFD Toolbox
   \\    /   O peration     | Website:  https://openfoam.org
    \\  /    A nd           | Version:  10
     \\/     M anipulation  |
\*---------------------------------------------------------------------------*/
FoamFile
{
    format      ascii;
    class       volVectorField;
    location    "0";
    object      U;
}
// * * * * * * * * * * * * * * * * * * * * * * * * * * * * * * * * * * * * * //

dimensions      [0 1 -1 0 0 0 0];

internalField   nonuniform List<vector> 
18483
(
(1.00001 -0.000159038 0)
(1.00001 -0.000575802 0)
(1 -0.000933489 0)
(0.999999 -0.00133016 0)
(0.999994 -0.00172319 0)
(0.999989 -0.00211514 0)
(0.999983 -0.00248639 0)
(0.999978 -0.00282239 0)
(0.999972 -0.0031115 0)
(0.999965 -0.00334977 0)
(0.999957 -0.00354311 0)
(0.999952 -0.00370429 0)
(0.999953 -0.0038503 0)
(0.99997 -0.0040201 0)
(1.00001 -0.00425866 0)
(1.00005 -0.00459988 0)
(1.00005 -0.00500839 0)
(0.999741 -0.00537755 0)
(0.998354 -0.00561927 0)
(0.994757 -0.00566623 0)
(0.989064 -0.00559031 0)
(0.984094 -0.00554505 0)
(0.982926 -0.0055236 0)
(0.985372 -0.00541862 0)
(0.989068 -0.00521124 0)
(0.992304 -0.00496334 0)
(0.994601 -0.00472479 0)
(0.996077 -0.00451919 0)
(0.996981 -0.00435245 0)
(1.00049 -0.000437798 0)
(1.00052 -0.00158184 0)
(1.0006 -0.00258517 0)
(1.00068 -0.00372835 0)
(1.00077 -0.00488981 0)
(1.00083 -0.00608048 0)
(1.00087 -0.0072412 0)
(1.00086 -0.00832545 0)
(1.00082 -0.00928407 0)
(1.00074 -0.0100756 0)
(1.00064 -0.0106654 0)
(1.00054 -0.0110475 0)
(1.00048 -0.0112185 0)
(1.00047 -0.011118 0)
(1.00053 -0.0106682 0)
(1.00059 -0.0097997 0)
(1.0006 -0.00858375 0)
(1.00072 -0.00726634 0)
(1.0017 -0.00613715 0)
(1.00496 -0.00554136 0)
(1.0108 -0.00556385 0)
(1.01615 -0.00588861 0)
(1.01699 -0.00623444 0)
(1.01337 -0.0065646 0)
(1.00847 -0.00688167 0)
(1.00451 -0.00712916 0)
(1.00196 -0.00728492 0)
(1.00048 -0.00735828 0)
(0.999693 -0.00736903 0)
(1.00138 -0.000685213 0)
(1.0015 -0.00246078 0)
(1.00172 -0.00402971 0)
(1.00197 -0.00583878 0)
(1.00224 -0.007693 0)
(1.00246 -0.00962342 0)
(1.0026 -0.0115339 0)
(1.00263 -0.0133489 0)
(1.00252 -0.0149803 0)
(1.00227 -0.0163614 0)
(1.00187 -0.0174489 0)
(1.00134 -0.0182268 0)
(1.00073 -0.018703 0)
(1.00006 -0.018929 0)
(0.9993 -0.0190588 0)
(0.998418 -0.01932 0)
(0.99744 -0.0198085 0)
(0.996394 -0.0203641 0)
(0.995026 -0.0206822 0)
(0.992578 -0.0204272 0)
(0.988573 -0.0194069 0)
(0.984567 -0.0179092 0)
(0.983457 -0.0164792 0)
(0.985647 -0.0152687 0)
(0.988805 -0.014188 0)
(0.99121 -0.0132419 0)
(0.992624 -0.0124378 0)
(0.993347 -0.0117608 0)
(0.993674 -0.0111948 0)
(1.00245 -0.000910858 0)
(1.00268 -0.0032508 0)
(1.00307 -0.00532061 0)
(1.00354 -0.00772184 0)
(1.00404 -0.0101942 0)
(1.00447 -0.0127965 0)
(1.00477 -0.0154074 0)
(1.00486 -0.0179377 0)
(1.0047 -0.020277 0)
(1.00426 -0.0223415 0)
(1.00358 -0.0240603 0)
(1.0027 -0.0253719 0)
(1.0017 -0.0262663 0)
(1.00065 -0.026793 0)
(0.999589 -0.0269755 0)
(0.998593 -0.0266516 0)
(0.997737 -0.0256553 0)
(0.99711 -0.0241468 0)
(0.99703 -0.0225077 0)
(0.998375 -0.0211194 0)
(1.00192 -0.0202746 0)
(1.00613 -0.0199766 0)
(1.00741 -0.0198072 0)
(1.00453 -0.0195665 0)
(1.00003 -0.0194024 0)
(0.996261 -0.0192939 0)
(0.993722 -0.0191699 0)
(0.992114 -0.0190167 0)
(0.991093 -0.0188352 0)
(1.00357 -0.00110601 0)
(1.00391 -0.00392672 0)
(1.00449 -0.00642075 0)
(1.00521 -0.00932816 0)
(1.00598 -0.012337 0)
(1.00667 -0.015539 0)
(1.00719 -0.0188016 0)
(1.00741 -0.0220294 0)
(1.00729 -0.0250828 0)
(1.00679 -0.0278314 0)
(1.00595 -0.0301563 0)
(1.00479 -0.0319759 0)
(1.00338 -0.0332904 0)
(1.00176 -0.0341407 0)
(1.00001 -0.0345877 0)
(0.998156 -0.0347872 0)
(0.996155 -0.0349848 0)
(0.994022 -0.0353031 0)
(0.991675 -0.0355287 0)
(0.988648 -0.0352958 0)
(0.984339 -0.0344255 0)
(0.979554 -0.0329323 0)
(0.977137 -0.0312286 0)
(0.978493 -0.0297059 0)
(0.981423 -0.0282371 0)
(0.983629 -0.0268174 0)
(0.984754 -0.0255576 0)
(0.985191 -0.0244762 0)
(0.985276 -0.0235665 0)
(1.0047 -0.00126153 0)
(1.00515 -0.00445864 0)
(1.00594 -0.00728719 0)
(1.00693 -0.0106024 0)
(1.00801 -0.0140561 0)
(1.00903 -0.017779 0)
(1.00984 -0.0216362 0)
(1.01029 -0.02553 0)
(1.0103 -0.0292978 0)
(1.00979 -0.032786 0)
(1.00872 -0.0358724 0)
(1.00713 -0.0384895 0)
(1.00511 -0.040612 0)
(1.00279 -0.0421969 0)
(1.00031 -0.0432321 0)
(0.997788 -0.0437236 0)
(0.995284 -0.0435219 0)
(0.992851 -0.0424774 0)
(0.990779 -0.0407631 0)
(0.99004 -0.0388258 0)
(0.991857 -0.0371219 0)
(0.995483 -0.0359572 0)
(0.997178 -0.0351782 0)
(0.994433 -0.0344298 0)
(0.989415 -0.033846 0)
(0.985166 -0.0334709 0)
(0.982331 -0.0331231 0)
(0.980468 -0.0327502 0)
(0.979185 -0.0323505 0)
(1.00582 -0.00137651 0)
(1.0064 -0.00484467 0)
(1.00741 -0.00791866 0)
(1.00868 -0.0115432 0)
(1.01011 -0.0153485 0)
(1.0115 -0.0195087 0)
(1.01268 -0.0238965 0)
(1.01346 -0.0284262 0)
(1.01367 -0.0329373 0)
(1.01321 -0.0372742 0)
(1.01203 -0.0412851 0)
(1.01021 -0.0448182 0)
(1.00791 -0.0477277 0)
(1.0053 -0.0499034 0)
(1.00246 -0.0513226 0)
(0.999414 -0.0521072 0)
(0.996105 -0.0525833 0)
(0.992408 -0.0531245 0)
(0.98832 -0.0537726 0)
(0.983622 -0.0541503 0)
(0.977687 -0.0538403 0)
(0.970922 -0.0526863 0)
(0.966411 -0.0510151 0)
(0.966755 -0.0493226 0)
(0.969764 -0.0475598 0)
(0.971978 -0.0456717 0)
(0.972799 -0.0439165 0)
(0.97288 -0.0423914 0)
(0.972643 -0.0410987 0)
(1.00693 -0.00145674 0)
(1.00764 -0.00510601 0)
(1.00885 -0.00834797 0)
(1.01042 -0.0121939 0)
(1.01222 -0.0162633 0)
(1.01403 -0.0207775 0)
(1.01563 -0.025627 0)
(1.01681 -0.0307526 0)
(1.01736 -0.0360011 0)
(1.01714 -0.0411976 0)
(1.01609 -0.046126 0)
(1.01426 -0.0505621 0)
(1.01173 -0.0543361 0)
(1.00859 -0.0573788 0)
(1.0049 -0.0596915 0)
(1.00077 -0.0613135 0)
(0.996364 -0.0621992 0)
(0.991846 -0.0620233 0)
(0.987539 -0.0606737 0)
(0.984383 -0.0586586 0)
(0.984056 -0.0566233 0)
(0.986814 -0.0550267 0)
(0.988718 -0.0538439 0)
(0.985374 -0.0526869 0)
(0.978544 -0.0517022 0)
(0.972784 -0.0510733 0)
(0.969125 -0.0505074 0)
(0.966686 -0.049882 0)
(0.96493 -0.0492123 0)
(1.008 -0.00151043 0)
(1.00882 -0.00527161 0)
(1.01024 -0.00861966 0)
(1.0121 -0.0126139 0)
(1.01427 -0.0168699 0)
(1.01652 -0.0216578 0)
(1.01861 -0.0268925 0)
(1.02028 -0.0325457 0)
(1.02129 -0.0384738 0)
(1.02146 -0.0444949 0)
(1.02065 -0.0503808 0)
(1.01879 -0.0559095 0)
(1.0159 -0.0608934 0)
(1.01212 -0.0651788 0)
(1.00768 -0.0686013 0)
(1.0028 -0.0709945 0)
(0.99764 -0.0723956 0)
(0.992203 -0.0732676 0)
(0.986415 -0.0742633 0)
(0.98011 -0.0754273 0)
(0.972336 -0.076083 0)
(0.962644 -0.0756419 0)
(0.954454 -0.0742027 0)
(0.952626 -0.0724216 0)
(0.95558 -0.0703766 0)
(0.957753 -0.0679127 0)
(0.957891 -0.0654854 0)
(0.957235 -0.0633406 0)
(0.956334 -0.0614816 0)
(1.009 -0.00154504 0)
(1.00994 -0.00536771 0)
(1.01155 -0.00877477 0)
(1.01369 -0.0128586 0)
(1.01623 -0.017234 0)
(1.01893 -0.0222192 0)
(1.02153 -0.0277555 0)
(1.02376 -0.0338502 0)
(1.02534 -0.0403877 0)
(1.02599 -0.0472146 0)
(1.02552 -0.0541225 0)
(1.02379 -0.060868 0)
(1.02086 -0.0671608 0)
(1.01687 -0.0726923 0)
(1.012 -0.0772116 0)
(1.0064 -0.0805935 0)
(1.00016 -0.0828713 0)
(0.99354 -0.084027 0)
(0.98707 -0.0837525 0)
(0.981631 -0.0820163 0)
(0.978844 -0.0795718 0)
(0.980016 -0.0773976 0)
(0.981787 -0.0759034 0)
(0.97746 -0.0745562 0)
(0.967486 -0.0732507 0)
(0.958817 -0.07245 0)
(0.953596 -0.0717569 0)
(0.950037 -0.070888 0)
(0.947345 -0.0699319 0)
(1.00992 -0.00156623 0)
(1.01095 -0.00541459 0)
(1.01274 -0.00884541 0)
(1.01515 -0.0129722 0)
(1.01805 -0.0174089 0)
(1.02119 -0.0225198 0)
(1.02434 -0.0282742 0)
(1.02717 -0.0347212 0)
(1.02938 -0.0417896 0)
(1.03065 -0.0493663 0)
(1.03072 -0.057253 0)
(1.02946 -0.0651721 0)
(1.0268 -0.0727832 0)
(1.02274 -0.0797552 0)
(1.01733 -0.0858394 0)
(1.01075 -0.0908734 0)
(1.00333 -0.0947316 0)
(0.995502 -0.0974836 0)
(0.987528 -0.0997042 0)
(0.979129 -0.10202 0)
(0.969171 -0.104055 0)
(0.956381 -0.104672 0)
(0.943597 -0.103381 0)
(0.938038 -0.101176 0)
(0.94034 -0.0987158 0)
(0.942394 -0.0955667 0)
(0.941257 -0.092245 0)
(0.939281 -0.0893335 0)
(0.937271 -0.0867847 0)
(1.01074 -0.00157815 0)
(1.01187 -0.00542736 0)
(1.01382 -0.00885583 0)
(1.01647 -0.0129887 0)
(1.0197 -0.0174377 0)
(1.02329 -0.0226103 0)
(1.02697 -0.0285044 0)
(1.03044 -0.0352128 0)
(1.03335 -0.0427115 0)
(1.03536 -0.050928 0)
(1.03619 -0.0596902 0)
(1.03556 -0.0687445 0)
(1.0333 -0.0777788 0)
(1.02929 -0.0864501 0)
(1.02357 -0.0943819 0)
(1.01643 -0.101195 0)
(1.00828 -0.10658 0)
(0.999521 -0.110331 0)
(0.990566 -0.112149 0)
(0.982111 -0.111665 0)
(0.975757 -0.109267 0)
(0.973871 -0.106452 0)
(0.974852 -0.104723 0)
(0.970132 -0.103664 0)
(0.956702 -0.102225 0)
(0.943674 -0.101166 0)
(0.93611 -0.100403 0)
(0.930964 -0.0992261 0)
(0.926877 -0.0978487 0)
(1.01147 -0.00158395 0)
(1.01268 -0.00541743 0)
(1.01478 -0.00882473 0)
(1.01766 -0.0129354 0)
(1.0212 -0.0173568 0)
(1.02521 -0.0225363 0)
(1.02941 -0.0284981 0)
(1.03352 -0.0353753 0)
(1.03717 -0.0431903 0)
(1.04002 -0.0519219 0)
(1.0417 -0.0614566 0)
(1.04186 -0.0716008 0)
(1.04024 -0.0820646 0)
(1.03666 -0.0924522 0)
(1.03113 -0.102281 0)
(1.02376 -0.111102 0)
(1.01483 -0.118627 0)
(1.00473 -0.124722 0)
(0.99384 -0.129603 0)
(0.982313 -0.134078 0)
(0.96955 -0.138523 0)
(0.953803 -0.141594 0)
(0.935947 -0.141453 0)
(0.924255 -0.138748 0)
(0.923926 -0.135602 0)
(0.925813 -0.131818 0)
(0.922996 -0.12733 0)
(0.918972 -0.123397 0)
(0.915376 -0.120009 0)
(1.01214 -0.00158597 0)
(1.01341 -0.00539335 0)
(1.01564 -0.00876657 0)
(1.01871 -0.0128343 0)
(1.02255 -0.0171971 0)
(1.02694 -0.0223378 0)
(1.03165 -0.0283029 0)
(1.03638 -0.0352614 0)
(1.04079 -0.043283 0)
(1.04451 -0.0524073 0)
(1.04713 -0.0625907 0)
(1.04826 -0.0736975 0)
(1.04758 -0.0854646 0)
(1.04481 -0.0975076 0)
(1.03975 -0.109361 0)
(1.03235 -0.120542 0)
(1.02289 -0.130584 0)
(1.01193 -0.138958 0)
(1.00008 -0.144979 0)
(0.988107 -0.147797 0)
(0.977341 -0.147116 0)
(0.970385 -0.144296 0)
(0.968408 -0.14215 0)
(0.963699 -0.141923 0)
(0.947715 -0.141298 0)
(0.928606 -0.139999 0)
(0.917076 -0.13925 0)
(0.909751 -0.137834 0)
(0.90358 -0.135813 0)
(1.01273 -0.00158586 0)
(1.01406 -0.00536134 0)
(1.0164 -0.00869228 0)
(1.01965 -0.0127023 0)
(1.02375 -0.0169834 0)
(1.0285 -0.0220491 0)
(1.03367 -0.0279628 0)
(1.039 -0.0349265 0)
(1.04416 -0.0430555 0)
(1.04875 -0.0524488 0)
(1.05238 -0.0631272 0)
(1.05464 -0.075021 0)
(1.05511 -0.087939 0)
(1.05337 -0.101574 0)
(1.04907 -0.11549 0)
(1.0421 -0.12911 0)
(1.03263 -0.141784 0)
(1.02107 -0.152918 0)
(1.00773 -0.162216 0)
(0.992864 -0.170298 0)
(0.976448 -0.178345 0)
(0.957442 -0.185765 0)
(0.934743 -0.189458 0)
(0.914487 -0.187578 0)
(0.907231 -0.183372 0)
(0.907951 -0.179062 0)
(0.903548 -0.173397 0)
(0.896321 -0.167945 0)
(0.89038 -0.163492 0)
(1.01325 -0.00158475 0)
(1.01464 -0.00532586 0)
(1.01708 -0.00861 0)
(1.02049 -0.0125523 0)
(1.02482 -0.0167359 0)
(1.02988 -0.0216995 0)
(1.03548 -0.0275183 0)
(1.04137 -0.0344246 0)
(1.04723 -0.0425728 0)
(1.0527 -0.0521133 0)
(1.05737 -0.0631298 0)
(1.06082 -0.0756346 0)
(1.06257 -0.0895346 0)
(1.0621 -0.104605 0)
(1.05898 -0.120446 0)
(1.05294 -0.136465 0)
(1.0439 -0.151986 0)
(1.03207 -0.16636 0)
(1.01794 -0.178799 0)
(1.00236 -0.188045 0)
(0.986807 -0.192511 0)
(0.973373 -0.19202 0)
(0.965036 -0.189697 0)
(0.958933 -0.19013 0)
(0.94237 -0.191927 0)
(0.916203 -0.191215 0)
(0.897214 -0.190267 0)
(0.886418 -0.188899 0)
(0.877025 -0.185921 0)
(1.01373 -0.00158344 0)
(1.01515 -0.00529005 0)
(1.01768 -0.00852574 0)
(1.02122 -0.0123946 0)
(1.02576 -0.0164703 0)
(1.0311 -0.0213132 0)
(1.0371 -0.027005 0)
(1.0435 -0.0338035 0)
(1.05002 -0.0418947 0)
(1.05633 -0.0514733 0)
(1.06204 -0.0626852 0)
(1.0667 -0.0756269 0)
(1.06983 -0.0902999 0)
(1.07086 -0.106569 0)
(1.06927 -0.124123 0)
(1.06453 -0.142452 0)
(1.05637 -0.160864 0)
(1.0449 -0.17856 0)
(1.03046 -0.19466 0)
(1.01327 -0.208652 0)
(0.99334 -0.221697 0)
(0.970338 -0.235195 0)
(0.94311 -0.246348 0)
(0.913533 -0.249334 0)
(0.893601 -0.24494 0)
(0.888832 -0.239736 0)
(0.883293 -0.233629 0)
(0.871448 -0.226062 0)
(0.861406 -0.219986 0)
(1.01416 -0.0015824 0)
(1.01562 -0.00525601 0)
(1.01822 -0.00844369 0)
(1.02187 -0.0122367 0)
(1.02659 -0.016199 0)
(1.03218 -0.0209095 0)
(1.03853 -0.0264514 0)
(1.04539 -0.0331039 0)
(1.05253 -0.0410765 0)
(1.05963 -0.0506023 0)
(1.06633 -0.061883 0)
(1.07221 -0.0750892 0)
(1.07678 -0.0903129 0)
(1.07945 -0.107527 0)
(1.07957 -0.126554 0)
(1.07649 -0.146993 0)
(1.06974 -0.168168 0)
(1.05922 -0.189282 0)
(1.04505 -0.209511 0)
(1.02749 -0.227631 0)
(1.00759 -0.241502 0)
(0.98764 -0.248553 0)
(0.970601 -0.249038 0)
(0.95864 -0.249307 0)
(0.942106 -0.254495 0)
(0.910435 -0.257655 0)
(0.878855 -0.25652 0)
(0.860723 -0.255327 0)
(0.846469 -0.251477 0)
(1.01455 -0.00158187 0)
(1.01604 -0.00522493 0)
(1.01871 -0.0083665 0)
(1.02245 -0.0120838 0)
(1.02733 -0.0159311 0)
(1.03314 -0.0205029 0)
(1.03979 -0.0258798 0)
(1.04708 -0.032359 0)
(1.05478 -0.0401674 0)
(1.0626 -0.049568 0)
(1.07024 -0.0608087 0)
(1.07729 -0.074123 0)
(1.0833 -0.0896923 0)
(1.08764 -0.107606 0)
(1.08962 -0.127817 0)
(1.0885 -0.150057 0)
(1.08364 -0.173757 0)
(1.07469 -0.198172 0)
(1.06161 -0.222454 0)
(1.04434 -0.245371 0)
(1.02266 -0.266219 0)
(0.996163 -0.286844 0)
(0.964439 -0.308176 0)
(0.927085 -0.323522 0)
(0.890631 -0.324649 0)
(0.870876 -0.318014 0)
(0.862176 -0.312166 0)
(0.845408 -0.303324 0)
(0.827517 -0.294347 0)
(1.01492 -0.00158191 0)
(1.01643 -0.00519732 0)
(1.01914 -0.00829563 0)
(1.02297 -0.0119391 0)
(1.02798 -0.0156727 0)
(1.03399 -0.0201039 0)
(1.04091 -0.0253076 0)
(1.04858 -0.0315962 0)
(1.05677 -0.0392088 0)
(1.06526 -0.0484301 0)
(1.07376 -0.0595433 0)
(1.08192 -0.0728356 0)
(1.0893 -0.0885698 0)
(1.09531 -0.106941 0)
(1.09924 -0.128025 0)
(1.10031 -0.151715 0)
(1.0977 -0.177612 0)
(1.09087 -0.205074 0)
(1.07956 -0.23339 0)
(1.06339 -0.26152 0)
(1.04214 -0.287555 0)
(1.01716 -0.308105 0)
(0.991516 -0.319053 0)
(0.968789 -0.32202 0)
(0.948584 -0.329001 0)
(0.915454 -0.340824 0)
(0.868751 -0.343667 0)
(0.834108 -0.341971 0)
(0.811859 -0.338493 0)
(1.01525 -0.0015825 0)
(1.01678 -0.00517328 0)
(1.01954 -0.00823174 0)
(1.02343 -0.0118044 0)
(1.02856 -0.0154279 0)
(1.03473 -0.0197202 0)
(1.04189 -0.024748 0)
(1.04989 -0.0308371 0)
(1.05854 -0.0382337 0)
(1.06763 -0.0472373 0)
(1.07691 -0.0581576 0)
(1.08609 -0.071324 0)
(1.09478 -0.0870662 0)
(1.10243 -0.105674 0)
(1.10833 -0.127338 0)
(1.11166 -0.152117 0)
(1.11155 -0.179821 0)
(1.10729 -0.209959 0)
(1.09844 -0.241969 0)
(1.08443 -0.27493 0)
(1.06438 -0.307052 0)
(1.03735 -0.337778 0)
(1.00262 -0.370144 0)
(0.959672 -0.403204 0)
(0.908859 -0.422769 0)
(0.864034 -0.420795 0)
(0.841094 -0.413834 0)
(0.820418 -0.40727 0)
(0.790348 -0.394796 0)
(1.01554 -0.00158357 0)
(1.0171 -0.0051527 0)
(1.01989 -0.00817494 0)
(1.02384 -0.0116807 0)
(1.02907 -0.0151991 0)
(1.03538 -0.0193568 0)
(1.04275 -0.0242108 0)
(1.05104 -0.0300979 0)
(1.06009 -0.0372674 0)
(1.06972 -0.0460286 0)
(1.07972 -0.0567092 0)
(1.08984 -0.0696706 0)
(1.09974 -0.0852931 0)
(1.10894 -0.10395 0)
(1.11675 -0.125939 0)
(1.12235 -0.151463 0)
(1.12488 -0.18055 0)
(1.12354 -0.212907 0)
(1.1177 -0.248132 0)
(1.10659 -0.28569 0)
(1.08883 -0.324206 0)
(1.06361 -0.361113 0)
(1.03313 -0.3915 0)
(1.00054 -0.408646 0)
(0.968953 -0.41724 0)
(0.934067 -0.437126 0)
(0.878088 -0.456514 0)
(0.815298 -0.457123 0)
(0.774215 -0.454468 0)
(1.01581 -0.00158502 0)
(1.01738 -0.00513533 0)
(1.0202 -0.008125 0)
(1.02419 -0.0115682 0)
(1.02951 -0.0149879 0)
(1.03594 -0.0190172 0)
(1.0435 -0.0237025 0)
(1.05204 -0.0293901 0)
(1.06145 -0.0363288 0)
(1.07155 -0.044834 0)
(1.0822 -0.0552443 0)
(1.09317 -0.0679439 0)
(1.10419 -0.0833507 0)
(1.11483 -0.101906 0)
(1.12445 -0.124004 0)
(1.13225 -0.149963 0)
(1.13745 -0.180006 0)
(1.13923 -0.21409 0)
(1.1368 -0.25199 0)
(1.12925 -0.293479 0)
(1.11511 -0.337517 0)
(1.09251 -0.381884 0)
(1.05979 -0.426789 0)
(1.01567 -0.477175 0)
(0.958227 -0.528699 0)
(0.888403 -0.553963 0)
(0.830362 -0.548385 0)
(0.796567 -0.544228 0)
(0.755135 -0.534446 0)
(1.01605 -0.00158679 0)
(1.01762 -0.00512085 0)
(1.02047 -0.00808149 0)
(1.0245 -0.0114669 0)
(1.0299 -0.0147946 0)
(1.03642 -0.018703 0)
(1.04414 -0.0232272 0)
(1.05291 -0.0287218 0)
(1.06262 -0.0354322 0)
(1.07315 -0.0436771 0)
(1.08437 -0.0538004 0)
(1.09611 -0.0662013 0)
(1.10813 -0.0813254 0)
(1.12009 -0.0996648 0)
(1.1314 -0.121693 0)
(1.14132 -0.147825 0)
(1.1491 -0.178444 0)
(1.15406 -0.213762 0)
(1.15531 -0.253756 0)
(1.15177 -0.298427 0)
(1.14193 -0.347424 0)
(1.12346 -0.399391 0)
(1.09505 -0.451511 0)
(1.059 -0.496454 0)
(1.01719 -0.523298 0)
(0.972388 -0.544364 0)
(0.914758 -0.587972 0)
(0.825407 -0.614387 0)
(0.739488 -0.609769 0)
(1.01626 -0.00158876 0)
(1.01785 -0.00510892 0)
(1.02071 -0.00804381 0)
(1.02478 -0.0113762 0)
(1.03023 -0.0146193 0)
(1.03684 -0.0184149 0)
(1.0447 -0.0227873 0)
(1.05366 -0.0280983 0)
(1.06364 -0.0345875 0)
(1.07454 -0.0425753 0)
(1.08625 -0.0524059 0)
(1.09867 -0.0644876 0)
(1.1116 -0.0792845 0)
(1.12474 -0.0973234 0)
(1.13762 -0.119143 0)
(1.14952 -0.14524 0)
(1.15976 -0.176117 0)
(1.16779 -0.212198 0)
(1.17282 -0.253706 0)
(1.1736 -0.300848 0)
(1.16856 -0.353717 0)
(1.15576 -0.411625 0)
(1.13239 -0.472674 0)
(1.09421 -0.53772 0)
(1.03945 -0.616243 0)
(0.964437 -0.700267 0)
(0.864718 -0.735845 0)
(0.778364 -0.727222 0)
(0.719712 -0.727486 0)
(1.01645 -0.00159087 0)
(1.01804 -0.00509918 0)
(1.02093 -0.00801135 0)
(1.02501 -0.0112956 0)
(1.03052 -0.0144613 0)
(1.0372 -0.0181528 0)
(1.04518 -0.0223839 0)
(1.0543 -0.0275225 0)
(1.06452 -0.0338015 0)
(1.07574 -0.0415407 0)
(1.08789 -0.0510819 0)
(1.10089 -0.0628367 0)
(1.11463 -0.077281 0)
(1.12884 -0.0949643 0)
(1.14312 -0.116473 0)
(1.15685 -0.142378 0)
(1.16939 -0.173264 0)
(1.18031 -0.209709 0)
(1.18903 -0.252171 0)
(1.19431 -0.301105 0)
(1.19439 -0.356848 0)
(1.18751 -0.41957 0)
(1.17125 -0.489356 0)
(1.14205 -0.563393 0)
(1.10029 -0.630128 0)
(1.04693 -0.672415 0)
(0.983859 -0.720994 0)
(0.887803 -0.811879 0)
(0.736108 -0.838514 0)
(1.01662 -0.00159303 0)
(1.01821 -0.00509132 0)
(1.02111 -0.00798348 0)
(1.02522 -0.0112242 0)
(1.03077 -0.0143197 0)
(1.03752 -0.017916 0)
(1.0456 -0.0220169 0)
(1.05486 -0.0269956 0)
(1.06527 -0.0330773 0)
(1.07677 -0.0405807 0)
(1.0893 -0.049842 0)
(1.10282 -0.0612725 0)
(1.11726 -0.0753539 0)
(1.13243 -0.0926505 0)
(1.14796 -0.113782 0)
(1.16334 -0.139375 0)
(1.178 -0.170082 0)
(1.19161 -0.206579 0)
(1.20375 -0.249493 0)
(1.21346 -0.299553 0)
(1.21891 -0.357374 0)
(1.21816 -0.423404 0)
(1.21013 -0.498755 0)
(1.19045 -0.582899 0)
(1.14785 -0.675792 0)
(1.08295 -0.798599 0)
(0.995388 -0.95015 0)
(0.838692 -1.01801 0)
(0.6619 -1 0)
(1.01676 -0.00159518 0)
(1.01837 -0.00508501 0)
(1.02128 -0.00795961 0)
(1.0254 -0.0111613 0)
(1.03099 -0.0141937 0)
(1.03778 -0.0177033 0)
(1.04595 -0.0216854 0)
(1.05533 -0.0265172 0)
(1.06592 -0.0324164 0)
(1.07765 -0.0396991 0)
(1.09051 -0.0486951 0)
(1.10449 -0.0598121 0)
(1.11954 -0.0735331 0)
(1.13554 -0.0904313 0)
(1.15218 -0.111148 0)
(1.16903 -0.136348 0)
(1.18561 -0.166738 0)
(1.20169 -0.203066 0)
(1.21696 -0.24605 0)
(1.23077 -0.296613 0)
(1.24162 -0.355757 0)
(1.2473 -0.424033 0)
(1.24669 -0.502962 0)
(1.23813 -0.59634 0)
(1.21466 -0.70317 0)
(1.17258 -0.802199 0)
(1.10721 -0.869506 0)
(1.01865 -0.989948 0)
(0.828723 -1.18504 0)
(1.0169 -0.00159728 0)
(1.0185 -0.00508001 0)
(1.02142 -0.00793921 0)
(1.02556 -0.0111063 0)
(1.03117 -0.014082 0)
(1.03802 -0.0175135 0)
(1.04625 -0.021388 0)
(1.05574 -0.0260861 0)
(1.06648 -0.0318179 0)
(1.07841 -0.038897 0)
(1.09156 -0.047645 0)
(1.10592 -0.0584649 0)
(1.12151 -0.0718374 0)
(1.13823 -0.0883392 0)
(1.15584 -0.108625 0)
(1.17398 -0.133385 0)
(1.19226 -0.163362 0)
(1.21057 -0.199358 0)
(1.2287 -0.242143 0)
(1.24615 -0.292709 0)
(1.26205 -0.352395 0)
(1.27431 -0.422148 0)
(1.28104 -0.503152 0)
(1.28357 -0.599972 0)
(1.27841 -0.71523 0)
(1.24041 -0.840062 0)
(1.17026 -1.02336 0)
(1.08966 -1.34193 0)
(0.760671 -1.45048 0)
(0.997521 -0.00421953 0)
(0.997855 -0.00410334 0)
(0.998042 -0.00399238 0)
(0.998101 -0.00388641 0)
(0.998039 -0.00378517 0)
(0.997852 -0.00368794 0)
(0.99753 -0.00359397 0)
(0.997054 -0.00350254 0)
(0.996401 -0.00341312 0)
(0.995551 -0.0033254 0)
(0.994493 -0.0032394 0)
(0.99323 -0.00315555 0)
(0.991789 -0.00307452 0)
(0.990223 -0.00299706 0)
(0.988616 -0.00292355 0)
(0.987077 -0.00285348 0)
(0.985729 -0.002785 0)
(0.984695 -0.00271459 0)
(0.984074 -0.00263711 0)
(0.999294 -0.00734094 0)
(0.999104 -0.00729333 0)
(0.999057 -0.00723391 0)
(0.999123 -0.00716619 0)
(0.999288 -0.00709098 0)
(0.999549 -0.00700878 0)
(0.999916 -0.00691953 0)
(1.00041 -0.00682224 0)
(1.00105 -0.00671482 0)
(1.00186 -0.00659386 0)
(1.00286 -0.00645448 0)
(1.00406 -0.00629031 0)
(1.00542 -0.00609386 0)
(1.00691 -0.00585744 0)
(1.00843 -0.00557457 0)
(1.00985 -0.00524194 0)
(1.01102 -0.00486136 0)
(1.0118 -0.00444128 0)
(1.01207 -0.00399716 0)
(0.993789 -0.010715 0)
(0.993791 -0.0102641 0)
(0.993706 -0.00979851 0)
(0.993539 -0.00931683 0)
(0.993288 -0.00882004 0)
(0.992937 -0.00830929 0)
(0.992458 -0.00778691 0)
(0.991818 -0.00725709 0)
(0.990974 -0.0067263 0)
(0.989883 -0.00620398 0)
(0.988505 -0.00570299 0)
(0.986821 -0.0052397 0)
(0.98484 -0.00483336 0)
(0.98262 -0.00450449 0)
(0.980278 -0.00427202 0)
(0.977986 -0.0041496 0)
(0.97597 -0.00414156 0)
(0.974468 -0.00423958 0)
(0.973694 -0.0044213 0)
(0.990419 -0.0186402 0)
(0.989926 -0.0184408 0)
(0.989544 -0.0182378 0)
(0.989261 -0.0180349 0)
(0.989077 -0.0178323 0)
(0.989013 -0.0176305 0)
(0.989105 -0.0174299 0)
(0.989406 -0.0172301 0)
(0.989988 -0.0170288 0)
(0.99093 -0.016821 0)
(0.992315 -0.0165979 0)
(0.994203 -0.016346 0)
(0.996613 -0.0160467 0)
(0.999493 -0.0156775 0)
(1.0027 -0.0152147 0)
(1.00598 -0.0146378 0)
(1.00902 -0.0139356 0)
(1.01143 -0.0131113 0)
(1.01286 -0.0121861 0)
(0.9852 -0.0227973 0)
(0.985047 -0.0220795 0)
(0.984835 -0.021346 0)
(0.984575 -0.0205953 0)
(0.984268 -0.0198291 0)
(0.983899 -0.0190481 0)
(0.983438 -0.0182535 0)
(0.982834 -0.0174471 0)
(0.982018 -0.0166326 0)
(0.980901 -0.0158158 0)
(0.979378 -0.0150061 0)
(0.977351 -0.0142179 0)
(0.974751 -0.0134708 0)
(0.97158 -0.0127896 0)
(0.967944 -0.0122009 0)
(0.964091 -0.011729 0)
(0.960403 -0.0113887 0)
(0.957354 -0.0111787 0)
(0.955422 -0.0110776 0)
(0.978249 -0.0319419 0)
(0.977487 -0.0315298 0)
(0.976815 -0.0311067 0)
(0.976228 -0.0306765 0)
(0.975735 -0.0302383 0)
(0.975358 -0.0297924 0)
(0.975141 -0.0293398 0)
(0.97515 -0.0288815 0)
(0.975475 -0.028418 0)
(0.976232 -0.0279483 0)
(0.977553 -0.0274683 0)
(0.979568 -0.026969 0)
(0.982367 -0.0264341 0)
(0.985954 -0.0258396 0)
(0.990193 -0.0251548 0)
(0.994776 -0.024347 0)
(0.999221 -0.0233886 0)
(1.00293 -0.0222674 0)
(1.00531 -0.0209933 0)
(0.972291 -0.040003 0)
(0.97189 -0.0389793 0)
(0.971446 -0.0379332 0)
(0.970976 -0.0368637 0)
(0.970487 -0.0357731 0)
(0.969974 -0.0346611 0)
(0.969415 -0.0335268 0)
(0.968767 -0.0323684 0)
(0.967956 -0.0311834 0)
(0.966875 -0.0299695 0)
(0.965376 -0.0287258 0)
(0.963288 -0.0274549 0)
(0.960445 -0.0261656 0)
(0.95674 -0.0248747 0)
(0.952197 -0.0236074 0)
(0.947043 -0.0223938 0)
(0.941742 -0.0212621 0)
(0.936968 -0.0202294 0)
(0.93347 -0.0192933 0)
(0.963583 -0.0485246 0)
(0.96243 -0.0478219 0)
(0.961357 -0.0470828 0)
(0.960352 -0.0463102 0)
(0.959414 -0.0455003 0)
(0.958557 -0.0446504 0)
(0.957808 -0.0437589 0)
(0.957214 -0.0428248 0)
(0.956851 -0.0418484 0)
(0.956829 -0.0408308 0)
(0.957293 -0.0397735 0)
(0.958415 -0.0386766 0)
(0.960362 -0.0375366 0)
(0.963239 -0.0363439 0)
(0.967011 -0.0350811 0)
(0.97143 -0.0337245 0)
(0.975994 -0.0322509 0)
(0.979999 -0.0306466 0)
(0.982682 -0.0289174 0)
(0.955386 -0.0598798 0)
(0.95442 -0.0583648 0)
(0.953401 -0.0568045 0)
(0.952349 -0.0552007 0)
(0.951274 -0.0535578 0)
(0.950177 -0.0518785 0)
(0.949049 -0.0501651 0)
(0.947866 -0.0484197 0)
(0.946578 -0.0466441 0)
(0.945101 -0.0448398 0)
(0.943307 -0.0430084 0)
(0.941022 -0.0411525 0)
(0.938047 -0.0392784 0)
(0.934208 -0.0373978 0)
(0.929442 -0.0355302 0)
(0.923905 -0.0337014 0)
(0.91805 -0.0319372 0)
(0.912627 -0.030254 0)
(0.908537 -0.0286476 0)
(0.945219 -0.0689316 0)
(0.943349 -0.0678936 0)
(0.941567 -0.0667853 0)
(0.939858 -0.0656129 0)
(0.938219 -0.064376 0)
(0.936663 -0.0630753 0)
(0.935211 -0.0617128 0)
(0.933903 -0.0602909 0)
(0.932801 -0.0588121 0)
(0.931999 -0.0572795 0)
(0.931629 -0.0556961 0)
(0.931861 -0.0540638 0)
(0.932883 -0.0523807 0)
(0.934848 -0.0506386 0)
(0.937792 -0.0488196 0)
(0.941525 -0.0468955 0)
(0.945562 -0.0448335 0)
(0.949142 -0.0426092 0)
(0.951398 -0.0402223 0)
(0.935339 -0.0845695 0)
(0.93347 -0.0824661 0)
(0.931576 -0.0802942 0)
(0.92968 -0.0780593 0)
(0.927801 -0.0757657 0)
(0.925947 -0.0734157 0)
(0.924118 -0.0710105 0)
(0.922303 -0.0685511 0)
(0.920465 -0.0660379 0)
(0.91854 -0.0634704 0)
(0.916414 -0.0608483 0)
(0.913922 -0.0581718 0)
(0.910847 -0.0554445 0)
(0.906963 -0.0526776 0)
(0.902123 -0.0498934 0)
(0.896385 -0.0471279 0)
(0.89015 -0.0444259 0)
(0.884206 -0.0418255 0)
(0.879588 -0.0393387 0)
(0.923642 -0.0963895 0)
(0.920772 -0.0948419 0)
(0.918023 -0.0931635 0)
(0.915378 -0.0913647 0)
(0.912831 -0.0894532 0)
(0.910386 -0.0874375 0)
(0.908057 -0.0853272 0)
(0.905869 -0.0831321 0)
(0.903866 -0.0808619 0)
(0.902119 -0.0785268 0)
(0.900736 -0.0761368 0)
(0.899872 -0.0737015 0)
(0.899721 -0.0712273 0)
(0.900484 -0.0687128 0)
(0.902282 -0.0661417 0)
(0.905028 -0.0634767 0)
(0.908306 -0.0606608 0)
(0.911331 -0.057632 0)
(0.913116 -0.0543548 0)
(0.911996 -0.117019 0)
(0.908821 -0.114186 0)
(0.905675 -0.111249 0)
(0.90259 -0.10822 0)
(0.899594 -0.1051 0)
(0.896703 -0.101884 0)
(0.893924 -0.0985724 0)
(0.891257 -0.095163 0)
(0.888682 -0.0916546 0)
(0.886155 -0.0880462 0)
(0.883591 -0.0843364 0)
(0.880846 -0.0805233 0)
(0.877706 -0.0766066 0)
(0.8739 -0.0725925 0)
(0.869168 -0.0685022 0)
(0.863406 -0.0643819 0)
(0.856856 -0.0603049 0)
(0.850266 -0.056359 0)
(0.844819 -0.052609 0)
(0.898743 -0.133663 0)
(0.894444 -0.1313 0)
(0.890319 -0.128686 0)
(0.886367 -0.125845 0)
(0.882572 -0.1228 0)
(0.878938 -0.119582 0)
(0.875477 -0.116214 0)
(0.872204 -0.112725 0)
(0.869147 -0.109137 0)
(0.86635 -0.105475 0)
(0.863884 -0.101762 0)
(0.861866 -0.0980196 0)
(0.860464 -0.0942697 0)
(0.859896 -0.0905268 0)
(0.860374 -0.0867893 0)
(0.861977 -0.0830238 0)
(0.864466 -0.0791518 0)
(0.867122 -0.075056 0)
(0.868814 -0.0706239 0)
(0.884871 -0.159434 0)
(0.879746 -0.155571 0)
(0.87478 -0.151536 0)
(0.869969 -0.147327 0)
(0.865379 -0.142952 0)
(0.861031 -0.138398 0)
(0.856936 -0.133666 0)
(0.853106 -0.128759 0)
(0.849531 -0.123678 0)
(0.846189 -0.118431 0)
(0.843023 -0.113024 0)
(0.839923 -0.107461 0)
(0.836706 -0.101744 0)
(0.83309 -0.09588 0)
(0.828721 -0.0898854 0)
(0.823274 -0.0838098 0)
(0.816696 -0.0777567 0)
(0.809518 -0.0718846 0)
(0.803026 -0.0663667 0)
(0.869534 -0.18264 0)
(0.862996 -0.178945 0)
(0.856673 -0.174722 0)
(0.850688 -0.170093 0)
(0.844998 -0.165075 0)
(0.839622 -0.159747 0)
(0.83459 -0.15416 0)
(0.829909 -0.148367 0)
(0.825605 -0.142426 0)
(0.821698 -0.136388 0)
(0.818228 -0.130309 0)
(0.815256 -0.124245 0)
(0.812893 -0.118254 0)
(0.811322 -0.112392 0)
(0.810799 -0.106703 0)
(0.811587 -0.101199 0)
(0.813756 -0.09582 0)
(0.816859 -0.0904049 0)
(0.819686 -0.0847095 0)
(0.852675 -0.214412 0)
(0.844355 -0.208809 0)
(0.836516 -0.202913 0)
(0.828991 -0.196564 0)
(0.821921 -0.18985 0)
(0.815366 -0.182758 0)
(0.809331 -0.175317 0)
(0.803868 -0.167576 0)
(0.798977 -0.15957 0)
(0.794664 -0.15135 0)
(0.790896 -0.142958 0)
(0.787607 -0.134434 0)
(0.784654 -0.125809 0)
(0.78179 -0.117105 0)
(0.778623 -0.108339 0)
(0.774629 -0.0995487 0)
(0.769317 -0.0908349 0)
(0.762659 -0.0824079 0)
(0.7557 -0.0746134 0)
(0.834068 -0.246182 0)
(0.823692 -0.240383 0)
(0.813547 -0.233395 0)
(0.804052 -0.225673 0)
(0.795222 -0.217214 0)
(0.787053 -0.208142 0)
(0.77968 -0.198593 0)
(0.773098 -0.18865 0)
(0.767361 -0.178446 0)
(0.762477 -0.168097 0)
(0.758459 -0.15773 0)
(0.755308 -0.147478 0)
(0.753053 -0.137478 0)
(0.751768 -0.127869 0)
(0.751631 -0.118791 0)
(0.752963 -0.110365 0)
(0.756165 -0.102637 0)
(0.76136 -0.0955152 0)
(0.767701 -0.0885938 0)
(0.813494 -0.286858 0)
(0.799697 -0.27838 0)
(0.786836 -0.26924 0)
(0.774763 -0.259062 0)
(0.763509 -0.247935 0)
(0.753401 -0.236042 0)
(0.744374 -0.223409 0)
(0.736592 -0.210244 0)
(0.730065 -0.196668 0)
(0.724835 -0.182844 0)
(0.720881 -0.168919 0)
(0.718159 -0.155029 0)
(0.716548 -0.141292 0)
(0.715835 -0.127801 0)
(0.715647 -0.114616 0)
(0.715375 -0.101776 0)
(0.714134 -0.0893631 0)
(0.711009 -0.0775224 0)
(0.70584 -0.06678 0)
(0.79098 -0.330315 0)
(0.773444 -0.321158 0)
(0.756771 -0.309891 0)
(0.740983 -0.296858 0)
(0.726807 -0.282569 0)
(0.713965 -0.266922 0)
(0.70287 -0.250361 0)
(0.693498 -0.233021 0)
(0.685976 -0.215185 0)
(0.6803 -0.19711 0)
(0.676488 -0.179059 0)
(0.674481 -0.161313 0)
(0.674223 -0.144159 0)
(0.675649 -0.127899 0)
(0.678756 -0.112849 0)
(0.683699 -0.0993423 0)
(0.690948 -0.087623 0)
(0.701178 -0.0779782 0)
(0.714961 -0.0700019 0)
(0.765881 -0.384214 0)
(0.743296 -0.372052 0)
(0.721188 -0.357175 0)
(0.701375 -0.340686 0)
(0.682969 -0.321786 0)
(0.666977 -0.301435 0)
(0.653237 -0.279642 0)
(0.642045 -0.256847 0)
(0.63341 -0.233408 0)
(0.627433 -0.20964 0)
(0.624056 -0.185906 0)
(0.623263 -0.162527 0)
(0.624916 -0.139813 0)
(0.62882 -0.118038 0)
(0.634615 -0.097424 0)
(0.641696 -0.0780705 0)
(0.648957 -0.0601963 0)
(0.654936 -0.0436452 0)
(0.656562 -0.0290019 0)
(0.741005 -0.445091 0)
(0.709677 -0.429764 0)
(0.682074 -0.412317 0)
(0.655604 -0.390381 0)
(0.632534 -0.366275 0)
(0.612332 -0.339692 0)
(0.595556 -0.311337 0)
(0.582175 -0.281796 0)
(0.572386 -0.251403 0)
(0.566077 -0.220716 0)
(0.563334 -0.190132 0)
(0.564033 -0.160118 0)
(0.568113 -0.131153 0)
(0.575431 -0.10377 0)
(0.58585 -0.0785637 0)
(0.599277 -0.0563457 0)
(0.616126 -0.037552 0)
(0.636428 -0.0236094 0)
(0.664049 -0.0146375 0)
(0.709622 -0.516373 0)
(0.672364 -0.499856 0)
(0.634892 -0.475322 0)
(0.602066 -0.447727 0)
(0.572916 -0.416194 0)
(0.54828 -0.381667 0)
(0.528103 -0.345415 0)
(0.512659 -0.307541 0)
(0.501601 -0.269002 0)
(0.495183 -0.230111 0)
(0.493142 -0.191399 0)