/*--------------------------------*- C++ -*----------------------------------*\
  =========                 |
  \\      /  F ield         | OpenFOAM: The Open Source CFD Toolbox
   \\    /   O peration     | Website:  https://openfoam.org
    \\  /    A nd           | Version:  10
     \\/     M anipulation  |
\*---------------------------------------------------------------------------*/
FoamFile
{
    format      ascii;
    class       volVectorField;
    location    "0";
    object      U;
}
// * * * * * * * * * * * * * * * * * * * * * * * * * * * * * * * * * * * * * //

dimensions      [0 1 -1 0 0 0 0];

internalField   nonuniform List<vector> 
18483
(
(0.999999 -0.000194979 0)
(0.999999 -0.000687262 0)
(0.999999 -0.00107182 0)
(0.999999 -0.00146539 0)
(1 -0.00181193 0)
(1 -0.00211867 0)
(1 -0.00237212 0)
(1 -0.00256483 0)
(1 -0.00269208 0)
(1 -0.00275412 0)
(1 -0.00275929 0)
(1.00001 -0.00272332 0)
(1.00003 -0.00266228 0)
(1.00006 -0.00260805 0)
(1.00011 -0.00259521 0)
(1.00017 -0.00264875 0)
(1.0002 -0.00274288 0)
(0.999941 -0.00279569 0)
(0.998726 -0.0027546 0)
(0.995659 -0.00263706 0)
(0.991035 -0.00257595 0)
(0.98732 -0.00267346 0)
(0.986822 -0.00280966 0)
(0.989041 -0.00281903 0)
(0.991993 -0.00269159 0)
(0.994455 -0.00250032 0)
(0.996169 -0.00230182 0)
(0.997275 -0.0021234 0)
(0.997967 -0.00197387 0)
(1.0006 -0.00059722 0)
(1.0006 -0.00209179 0)
(1.00063 -0.00326365 0)
(1.00064 -0.00447509 0)
(1.00064 -0.00554702 0)
(1.00061 -0.00650879 0)
(1.00055 -0.00731721 0)
(1.00045 -0.00794969 0)
(1.00032 -0.00838737 0)
(1.00016 -0.00862175 0)
(0.999972 -0.00865242 0)
(0.99978 -0.00849976 0)
(0.999605 -0.00819366 0)
(0.999456 -0.00769591 0)
(0.999325 -0.0069471 0)
(0.999171 -0.00590996 0)
(0.998955 -0.00463622 0)
(0.998901 -0.00332055 0)
(0.999898 -0.00216784 0)
(1.00335 -0.00134619 0)
(1.00916 -0.000767544 0)
(1.01391 -0.000201622 0)
(1.01408 0.000309241 0)
(1.01043 0.000608131 0)
(1.00607 0.000715626 0)
(1.00275 0.000754335 0)
(1.00065 0.000797767 0)
(0.999426 0.000867414 0)
(0.998737 0.000962872 0)
(1.00181 -0.00100435 0)
(1.00183 -0.00350023 0)
(1.00192 -0.00547164 0)
(1.00197 -0.00753231 0)
(1.00198 -0.00937264 0)
(1.00192 -0.0110573 0)
(1.00177 -0.012511 0)
(1.00151 -0.0136983 0)
(1.00113 -0.0145832 0)
(1.00065 -0.0151512 0)
(1.00008 -0.0154056 0)
(0.999443 -0.0153713 0)
(0.998798 -0.0151016 0)
(0.998176 -0.0146701 0)
(0.997555 -0.0142099 0)
(0.996907 -0.01395 0)
(0.996224 -0.0139917 0)
(0.995363 -0.0141808 0)
(0.993668 -0.014237 0)
(0.990027 -0.0138593 0)
(0.984544 -0.0129083 0)
(0.980199 -0.0116302 0)
(0.980208 -0.0103556 0)
(0.9837 -0.00911969 0)
(0.987548 -0.00793252 0)
(0.990216 -0.00687939 0)
(0.991741 -0.00598937 0)
(0.992536 -0.00525263 0)
(0.992921 -0.00464808 0)
(1.00335 -0.0013885 0)
(1.00341 -0.00482421 0)
(1.00357 -0.00756266 0)
(1.00369 -0.0104556 0)
(1.00375 -0.0130711 0)
(1.00368 -0.0155164 0)
(1.00344 -0.0176824 0)
(1.00301 -0.0195235 0)
(1.00238 -0.0209809 0)
(1.00155 -0.0220267 0)
(1.00058 -0.0226466 0)
(0.999508 -0.0228331 0)
(0.998419 -0.0226152 0)
(0.997367 -0.0220582 0)
(0.996378 -0.0212082 0)
(0.995479 -0.0199287 0)
(0.994723 -0.0180602 0)
(0.994221 -0.0157301 0)
(0.994488 -0.0133367 0)
(0.996588 -0.011367 0)
(1.00077 -0.0102083 0)
(1.00438 -0.0097615 0)
(1.00394 -0.00950707 0)
(0.999852 -0.0092404 0)
(0.995328 -0.00899421 0)
(0.992135 -0.00872002 0)
(0.990238 -0.00839887 0)
(0.989169 -0.00804722 0)
(0.988567 -0.00768283 0)
(1.00502 -0.00172438 0)
(1.00514 -0.00598236 0)
(1.00539 -0.00941027 0)
(1.0056 -0.0130714 0)
(1.00573 -0.0164313 0)
(1.00569 -0.0196384 0)
(1.00542 -0.0225527 0)
(1.00486 -0.0251185 0)
(1.00399 -0.027248 0)
(1.00282 -0.0288835 0)
(1.00141 -0.0299845 0)
(0.999808 -0.0305382 0)
(0.998063 -0.0305936 0)
(0.996231 -0.030253 0)
(0.994365 -0.0296605 0)
(0.992485 -0.0289777 0)
(0.990539 -0.0284477 0)
(0.988458 -0.0282054 0)
(0.986021 -0.0280041 0)
(0.982686 -0.0273587 0)
(0.978237 -0.0258855 0)
(0.974325 -0.023654 0)
(0.973644 -0.0213219 0)
(0.976128 -0.0193363 0)
(0.97905 -0.0175852 0)
(0.980847 -0.0160418 0)
(0.981643 -0.0147232 0)
(0.981885 -0.0136034 0)
(0.98187 -0.0126603 0)
(1.00677 -0.00200266 0)
(1.00697 -0.00694307 0)
(1.00733 -0.010963 0)
(1.00767 -0.0153062 0)
(1.00794 -0.0193576 0)
(1.00798 -0.023307 0)
(1.00772 -0.0269888 0)
(1.00708 -0.0303391 0)
(1.00602 -0.0332427 0)
(1.00453 -0.0356149 0)
(1.00265 -0.0374007 0)
(1.00045 -0.0385932 0)
(0.998031 -0.0392239 0)
(0.995536 -0.0393107 0)
(0.993115 -0.0388812 0)
(0.990876 -0.0379165 0)
(0.988855 -0.036333 0)
(0.987047 -0.0341134 0)
(0.98559 -0.0314684 0)
(0.98511 -0.0288782 0)
(0.986408 -0.0268611 0)
(0.98858 -0.0256785 0)
(0.988685 -0.0249174 0)
(0.985612 -0.0240503 0)
(0.981596 -0.0232083 0)
(0.978588 -0.0224822 0)
(0.976705 -0.0217973 0)
(0.975532 -0.0211453 0)
(0.974766 -0.0205251 0)
(1.00858 -0.00222534 0)
(1.00888 -0.00771237 0)
(1.00938 -0.0122256 0)
(1.0099 -0.0171582 0)
(1.01034 -0.0218357 0)
(1.01054 -0.02649 0)
(1.01038 -0.0309367 0)
(1.00975 -0.0351066 0)
(1.00858 -0.0388613 0)
(1.00685 -0.0420914 0)
(1.00459 -0.0447045 0)
(1.0019 -0.0466329 0)
(0.998939 -0.0478255 0)
(0.995845 -0.0482392 0)
(0.992702 -0.0479288 0)
(0.989517 -0.0470833 0)
(0.986248 -0.0460773 0)
(0.982834 -0.0452647 0)
(0.979221 -0.0446553 0)
(0.975186 -0.0439466 0)
(0.970415 -0.0427243 0)
(0.965513 -0.0407179 0)
(0.962683 -0.0382096 0)
(0.963171 -0.0358486 0)
(0.965129 -0.0336742 0)
(0.966474 -0.0315702 0)
(0.96696 -0.0296686 0)
(0.966982 -0.0280069 0)
(0.966806 -0.0265804 0)
(1.0104 -0.00239997 0)
(1.0108 -0.0083154 0)
(1.01147 -0.013231 0)
(1.01221 -0.0186618 0)
(1.01288 -0.0238917 0)
(1.01331 -0.0291943 0)
(1.01333 -0.0343735 0)
(1.0128 -0.0393606 0)
(1.01163 -0.0439992 0)
(1.00976 -0.0481543 0)
(1.00721 -0.0516873 0)
(1.00405 -0.0544787 0)
(1.00042 -0.0564659 0)
(0.996415 -0.057657 0)
(0.992152 -0.0581413 0)
(0.98778 -0.0579727 0)
(0.983512 -0.0570768 0)
(0.979567 -0.0552479 0)
(0.97613 -0.052474 0)
(0.973678 -0.0492406 0)
(0.97302 -0.0462002 0)
(0.973986 -0.0438756 0)
(0.974108 -0.0422919 0)
(0.971157 -0.0408336 0)
(0.966463 -0.0393855 0)
(0.962576 -0.0381754 0)
(0.960039 -0.0370734 0)
(0.958357 -0.0360122 0)
(0.957167 -0.034997 0)
(1.01218 -0.00253584 0)
(1.0127 -0.00878312 0)
(1.01355 -0.0140219 0)
(1.01452 -0.0198661 0)
(1.01547 -0.0255708 0)
(1.01617 -0.0314513 0)
(1.01644 -0.0373074 0)
(1.01611 -0.0430792 0)
(1.01503 -0.0485994 0)
(1.01311 -0.0537149 0)
(1.01035 -0.0582595 0)
(1.00678 -0.062088 0)
(1.00253 -0.0651033 0)
(0.997765 -0.0672321 0)
(0.992713 -0.0684126 0)
(0.987574 -0.0685719 0)
(0.982443 -0.067844 0)
(0.977288 -0.0667802 0)
(0.972037 -0.0659343 0)
(0.966592 -0.0652355 0)
(0.960588 -0.064147 0)
(0.954019 -0.0621894 0)
(0.948629 -0.0593378 0)
(0.946738 -0.0563184 0)
(0.947583 -0.0535117 0)
(0.948403 -0.0506999 0)
(0.948308 -0.0480428 0)
(0.947763 -0.0456853 0)
(0.947091 -0.0436288 0)
(1.01388 -0.00264153 0)
(1.01452 -0.00914421 0)
(1.01556 -0.0146397 0)
(1.01678 -0.0208213 0)
(1.01803 -0.0269249 0)
(1.01905 -0.0333071 0)
(1.01963 -0.0397702 0)
(1.01957 -0.0462684 0)
(1.01869 -0.0526324 0)
(1.01687 -0.0587023 0)
(1.01405 -0.0642956 0)
(1.01025 -0.069232 0)
(1.00558 -0.0733438 0)
(1.00021 -0.0764753 0)
(0.994289 -0.0785617 0)
(0.987952 -0.0796463 0)
(0.981331 -0.079833 0)
(0.974743 -0.0790762 0)
(0.968659 -0.0770752 0)
(0.963562 -0.0738247 0)
(0.960205 -0.0700179 0)
(0.959154 -0.0666094 0)
(0.958654 -0.0641009 0)
(0.95539 -0.0619432 0)
(0.949323 -0.0596971 0)
(0.94367 -0.0577152 0)
(0.939855 -0.0559586 0)
(0.937234 -0.0542538 0)
(0.935278 -0.0526256 0)
(1.01547 -0.0027239 0)
(1.01623 -0.00942218 0)
(1.01746 -0.0151196 0)
(1.01895 -0.0215727 0)
(1.02051 -0.0280043 0)
(1.02188 -0.0348112 0)
(1.02282 -0.0418021 0)
(1.02311 -0.0489489 0)
(1.02253 -0.0560891 0)
(1.02094 -0.0630687 0)
(1.01822 -0.0696991 0)
(1.01434 -0.0757783 0)
(1.00937 -0.0811091 0)
(1.00339 -0.0855153 0)
(0.99656 -0.0888933 0)
(0.98912 -0.0911503 0)
(0.981392 -0.0921582 0)
(0.97367 -0.0919811 0)
(0.966031 -0.0912173 0)
(0.958345 -0.0905851 0)
(0.950311 -0.0899288 0)
(0.941484 -0.0883387 0)
(0.932863 -0.0852997 0)
(0.927593 -0.081561 0)
(0.926622 -0.077985 0)
(0.926679 -0.0743896 0)
(0.925649 -0.0708288 0)
(0.924102 -0.067624 0)
(0.922556 -0.064794 0)
(1.01694 -0.00278832 0)
(1.01781 -0.00963565 0)
(1.01924 -0.0154904 0)
(1.02098 -0.0221592 0)
(1.02287 -0.0288551 0)
(1.02461 -0.0360134 0)
(1.02595 -0.0434519 0)
(1.02664 -0.0511633 0)
(1.02644 -0.0590008 0)
(1.02517 -0.0668279 0)
(1.02266 -0.0744644 0)
(1.01885 -0.0817082 0)
(1.01374 -0.0883471 0)
(1.0074 -0.0941487 0)
(0.999997 -0.0988875 0)
(0.991764 -0.102367 0)
(0.982925 -0.104511 0)
(0.973713 -0.105369 0)
(0.964563 -0.104854 0)
(0.956183 -0.102641 0)
(0.949432 -0.098856 0)
(0.945168 -0.0946395 0)
(0.942712 -0.0912793 0)
(0.938493 -0.0886185 0)
(0.930541 -0.0857087 0)
(0.922131 -0.082856 0)
(0.916244 -0.0803479 0)
(0.912201 -0.0778719 0)
(0.909082 -0.075464 0)
(1.0183 -0.00283898 0)
(1.01928 -0.00979921 0)
(1.02088 -0.0157756 0)
(1.02289 -0.0226138 0)
(1.02509 -0.029519 0)
(1.0272 -0.036963 0)
(1.02896 -0.044775 0)
(1.03008 -0.0529705 0)
(1.03032 -0.0614231 0)
(1.02945 -0.0700197 0)
(1.02729 -0.0785986 0)
(1.02374 -0.0869675 0)
(1.01874 -0.0949034 0)
(1.0123 -0.102137 0)
(1.0045 -0.108406 0)
(0.995437 -0.113509 0)
(0.985357 -0.117312 0)
(0.974676 -0.119673 0)
(0.963866 -0.120669 0)
(0.95309 -0.120947 0)
(0.942095 -0.12108 0)
(0.930299 -0.120473 0)
(0.917899 -0.117901 0)
(0.908015 -0.113543 0)
(0.903759 -0.108972 0)
(0.902448 -0.104527 0)
(0.900068 -0.0999015 0)
(0.896912 -0.0956302 0)
(0.893989 -0.0918538 0)
(1.01954 -0.00287907 0)
(1.02062 -0.00992413 0)
(1.0224 -0.0159938 0)
(1.02465 -0.0229638 0)
(1.02717 -0.030032 0)
(1.02965 -0.0377057 0)
(1.03182 -0.0458254 0)
(1.03339 -0.0544283 0)
(1.0341 -0.063409 0)
(1.03372 -0.0726808 0)
(1.03205 -0.0821079 0)
(1.02891 -0.0915234 0)
(1.02422 -0.100724 0)
(1.01787 -0.109457 0)
(1.00983 -0.117442 0)
(1.00023 -0.124389 0)
(0.989343 -0.130001 0)
(0.977585 -0.134015 0)
(0.965351 -0.136234 0)
(0.953214 -0.136331 0)
(0.942148 -0.13398 0)
(0.933377 -0.129775 0)
(0.92735 -0.125575 0)
(0.921319 -0.122556 0)
(0.911312 -0.119496 0)
(0.899172 -0.115844 0)
(0.889963 -0.11248 0)
(0.883787 -0.10915 0)
(0.878934 -0.105737 0)
(1.02067 -0.00291101 0)
(1.02184 -0.0100189 0)
(1.02379 -0.0161593 0)
(1.02628 -0.023231 0)
(1.02909 -0.030424 0)
(1.03193 -0.03828 0)
(1.03451 -0.046649 0)
(1.03654 -0.0555867 0)
(1.03776 -0.0650091 0)
(1.03792 -0.0748582 0)
(1.03679 -0.0850319 0)
(1.03419 -0.0954037 0)
(1.02995 -0.105811 0)
(1.02391 -0.116023 0)
(1.01601 -0.125734 0)
(1.00629 -0.134582 0)
(0.994902 -0.142233 0)
(0.982113 -0.148408 0)
(0.968259 -0.152881 0)
(0.953753 -0.155827 0)
(0.938816 -0.15798 0)
(0.923146 -0.15947 0)
(0.906256 -0.158848 0)
(0.890344 -0.154838 0)
(0.880406 -0.149129 0)
(0.876318 -0.143614 0)
(0.872141 -0.137776 0)
(0.866559 -0.132003 0)
(0.861493 -0.126912 0)
(1.0217 -0.00293658 0)
(1.02296 -0.0100902 0)
(1.02506 -0.0162835 0)
(1.02776 -0.0234325 0)
(1.03086 -0.030719 0)
(1.03404 -0.0387176 0)
(1.03701 -0.0472851 0)
(1.0395 -0.0564932 0)
(1.04123 -0.0662796 0)
(1.04194 -0.0766152 0)
(1.0414 -0.0874336 0)
(1.03941 -0.0986514 0)
(1.03578 -0.11015 0)
(1.03031 -0.121734 0)
(1.02284 -0.133122 0)
(1.01327 -0.143974 0)
(1.00162 -0.153941 0)
(0.988118 -0.162627 0)
(0.973127 -0.169522 0)
(0.957215 -0.174009 0)
(0.941386 -0.175298 0)
(0.926938 -0.173082 0)
(0.915227 -0.168929 0)
(0.905651 -0.165663 0)
(0.893318 -0.163189 0)
(0.876595 -0.159315 0)
(0.861877 -0.154928 0)
(0.852093 -0.150659 0)
(0.844507 -0.145939 0)
(1.02263 -0.00295716 0)
(1.02397 -0.0101429 0)
(1.02622 -0.016375 0)
(1.02912 -0.023582 0)
(1.03248 -0.0309365 0)
(1.03599 -0.039045 0)
(1.03934 -0.0477684 0)
(1.04225 -0.0571927 0)
(1.04447 -0.0672759 0)
(1.04573 -0.0780136 0)
(1.04581 -0.0893706 0)
(1.04451 -0.101305 0)
(1.04162 -0.113748 0)
(1.0369 -0.126572 0)
(1.03009 -0.139567 0)
(1.02097 -0.152426 0)
(1.00953 -0.16476 0)
(0.99587 -0.176082 0)
(0.980144 -0.185826 0)
(0.962584 -0.193585 0)
(0.943546 -0.199728 0)
(0.923104 -0.205047 0)
(0.900923 -0.208597 0)
(0.877829 -0.207476 0)
(0.859082 -0.201625 0)
(0.849019 -0.194833 0)
(0.842088 -0.187922 0)
(0.833026 -0.180228 0)
(0.824376 -0.173179 0)
(1.02349 -0.00297374 0)
(1.0249 -0.0101808 0)
(1.02728 -0.0164406 0)
(1.03036 -0.02369 0)
(1.03397 -0.0310923 0)
(1.03777 -0.0392847 0)
(1.04148 -0.0481289 0)
(1.04481 -0.0577239 0)
(1.04749 -0.0680447 0)
(1.0493 -0.0791049 0)
(1.05001 -0.0908962 0)
(1.04944 -0.103418 0)
(1.04736 -0.11666 0)
(1.04351 -0.130573 0)
(1.03756 -0.145022 0)
(1.02928 -0.159756 0)
(1.0185 -0.17441 0)
(1.00512 -0.18853 0)
(0.989056 -0.201534 0)
(0.970516 -0.212617 0)
(0.950299 -0.220571 0)
(0.929837 -0.223894 0)
(0.910834 -0.222463 0)
(0.894857 -0.219606 0)
(0.878932 -0.218548 0)
(0.857259 -0.216343 0)
(0.834008 -0.211295 0)
(0.817384 -0.20595 0)
(0.805259 -0.199783 0)
(1.02427 -0.00298708 0)
(1.02574 -0.0102071 0)
(1.02825 -0.0164859 0)
(1.0315 -0.0237651 0)
(1.03534 -0.0311991 0)
(1.03941 -0.0394545 0)
(1.04344 -0.0483905 0)
(1.04716 -0.0581173 0)
(1.0503 -0.068624 0)
(1.05263 -0.0799361 0)
(1.05397 -0.092069 0)
(1.05412 -0.105061 0)
(1.05288 -0.118957 0)
(1.04998 -0.13378 0)
(1.04509 -0.149478 0)
(1.0379 -0.165897 0)
(1.02812 -0.18277 0)
(1.01546 -0.199684 0)
(0.999702 -0.216013 0)
(0.980805 -0.230899 0)
(0.958901 -0.24371 0)
(0.934051 -0.255069 0)
(0.906219 -0.265538 0)
(0.875598 -0.272007 0)
(0.845287 -0.269969 0)
(0.823545 -0.262456 0)
(0.810809 -0.254795 0)
(0.797098 -0.245603 0)
(0.782261 -0.235781 0)
(1.02499 -0.00299774 0)
(1.02651 -0.010224 0)
(1.02914 -0.0165151 0)
(1.03253 -0.023814 0)
(1.03658 -0.0312676 0)
(1.04091 -0.0395691 0)
(1.04524 -0.0485724 0)
(1.04933 -0.0583988 0)
(1.05289 -0.0690481 0)
(1.05572 -0.0805538 0)
(1.05765 -0.0929505 0)
(1.05849 -0.106309 0)
(1.05809 -0.120717 0)
(1.05618 -0.136266 0)
(1.05244 -0.152999 0)
(1.04652 -0.17088 0)
(1.03804 -0.189761 0)
(1.02661 -0.209297 0)
(1.01179 -0.228941 0)
(0.99323 -0.247921 0)
(0.97095 -0.265018 0)
(0.945746 -0.278158 0)
(0.919448 -0.284798 0)
(0.894478 -0.285562 0)
(0.871975 -0.286678 0)
(0.84547 -0.289333 0)
(0.811512 -0.28665 0)
(0.781951 -0.280342 0)
(0.761567 -0.273148 0)
(1.02564 -0.00300617 0)
(1.02721 -0.0102336 0)
(1.02994 -0.016532 0)
(1.03347 -0.0238423 0)
(1.03772 -0.0313058 0)
(1.04227 -0.03964 0)
(1.04689 -0.0486906 0)
(1.05131 -0.0585909 0)
(1.05526 -0.0693482 0)
(1.05855 -0.0810005 0)
(1.06102 -0.0935953 0)
(1.06253 -0.107227 0)
(1.06294 -0.122017 0)
(1.06203 -0.138122 0)
(1.05949 -0.155678 0)
(1.05496 -0.174763 0)
(1.04806 -0.195355 0)
(1.03827 -0.217241 0)
(1.02492 -0.24 0)
(1.00748 -0.262958 0)
(0.985526 -0.285001 0)
(0.95862 -0.305399 0)
(0.926536 -0.325332 0)
(0.88938 -0.344391 0)
(0.84758 -0.354856 0)
(0.807986 -0.351572 0)
(0.78139 -0.343513 0)
(0.761059 -0.334852 0)
(0.736879 -0.322285 0)
(1.02622 -0.00301278 0)
(1.02785 -0.0102375 0)
(1.03067 -0.0165392 0)
(1.03431 -0.0238547 0)
(1.03874 -0.0313209 0)
(1.0435 -0.039677 0)
(1.04838 -0.0487592 0)
(1.0531 -0.0587132 0)
(1.05742 -0.0695506 0)
(1.06113 -0.0813111 0)
(1.0641 -0.0940487 0)
(1.06625 -0.107874 0)
(1.06744 -0.122936 0)
(1.06751 -0.139446 0)
(1.06617 -0.157622 0)
(1.0631 -0.177643 0)
(1.05792 -0.199628 0)
(1.05003 -0.223531 0)
(1.03862 -0.249085 0)
(1.02296 -0.275838 0)
(1.00234 -0.302916 0)
(0.976229 -0.328563 0)
(0.945599 -0.34952 0)
(0.912615 -0.361714 0)
(0.879788 -0.367491 0)
(0.846637 -0.377189 0)
(0.80339 -0.38519 0)
(0.753571 -0.381154 0)
(0.715859 -0.373484 0)
(1.02675 -0.00301788 0)
(1.02841 -0.010237 0)
(1.03132 -0.0165393 0)
(1.03507 -0.0238549 0)
(1.03966 -0.0313184 0)
(1.0446 -0.039688 0)
(1.04973 -0.0487895 0)
(1.05473 -0.0587816 0)
(1.05937 -0.0696763 0)
(1.06347 -0.0815132 0)
(1.06692 -0.0943485 0)
(1.06965 -0.108303 0)
(1.07158 -0.123546 0)
(1.07257 -0.140331 0)
(1.07239 -0.158945 0)
(1.07078 -0.179656 0)
(1.06736 -0.202716 0)
(1.06155 -0.228256 0)
(1.05245 -0.256191 0)
(1.03917 -0.286267 0)
(1.02085 -0.317857 0)
(0.996258 -0.34965 0)
(0.964172 -0.381284 0)
(0.924181 -0.415229 0)
(0.875354 -0.448916 0)
(0.817382 -0.46563 0)
(0.763997 -0.461288 0)
(0.727794 -0.454612 0)
(0.692521 -0.443363 0)
(1.02722 -0.00302176 0)
(1.02892 -0.0102332 0)
(1.0319 -0.016534 0)
(1.03575 -0.0238461 0)
(1.04049 -0.0313031 0)
(1.04559 -0.0396797 0)
(1.05093 -0.0487909 0)
(1.05619 -0.058809 0)
(1.06113 -0.0697423 0)
(1.06559 -0.0816308 0)
(1.06947 -0.0945288 0)
(1.07273 -0.108562 0)
(1.07533 -0.123915 0)
(1.07718 -0.140867 0)
(1.07811 -0.159763 0)
(1.0779 -0.18095 0)
(1.07623 -0.204788 0)
(1.07258 -0.231574 0)
(1.06604 -0.261428 0)
(1.05557 -0.294296 0)
(1.04013 -0.329941 0)
(1.01842 -0.367669 0)
(0.989373 -0.40546 0)
(0.953859 -0.438328 0)
(0.913064 -0.45967 0)
(0.869332 -0.476156 0)
(0.819105 -0.503234 0)
(0.748755 -0.518215 0)
(0.675654 -0.510873 0)
(1.02764 -0.00302465 0)
(1.02938 -0.0102272 0)
(1.03242 -0.016525 0)
(1.03636 -0.023831 0)
(1.04122 -0.0312789 0)
(1.04648 -0.0396573 0)
(1.05202 -0.0487712 0)
(1.05749 -0.0588055 0)
(1.0627 -0.0697632 0)
(1.06749 -0.0816842 0)
(1.07176 -0.0946186 0)
(1.0755 -0.108693 0)
(1.07871 -0.124097 0)
(1.08134 -0.141131 0)
(1.0833 -0.160182 0)
(1.08442 -0.181663 0)
(1.08445 -0.206018 0)
(1.08293 -0.233679 0)
(1.07904 -0.264985 0)
(1.07167 -0.3001 0)
(1.05962 -0.338992 0)
(1.04182 -0.381438 0)
(1.01645 -0.426567 0)
(0.980254 -0.474717 0)
(0.932092 -0.531664 0)
(0.869265 -0.592223 0)
(0.785853 -0.620672 0)
(0.705979 -0.616215 0)
(0.649002 -0.612103 0)
(1.02801 -0.00302674 0)
(1.02978 -0.0102196 0)
(1.03288 -0.0165135 0)
(1.03689 -0.0238115 0)
(1.04188 -0.0312489 0)
(1.04727 -0.0396253 0)
(1.05298 -0.0487366 0)
(1.05866 -0.05878 0)
(1.06411 -0.0697513 0)
(1.06919 -0.0816907 0)
(1.0738 -0.0946421 0)
(1.07797 -0.108728 0)
(1.08173 -0.124141 0)
(1.08507 -0.141192 0)
(1.08797 -0.160297 0)
(1.09032 -0.181921 0)
(1.09196 -0.206579 0)
(1.09249 -0.234807 0)
(1.09118 -0.267118 0)
(1.08705 -0.303918 0)
(1.07875 -0.345332 0)
(1.06514 -0.391615 0)
(1.04514 -0.443371 0)
(1.01628 -0.498847 0)
(0.977026 -0.549831 0)
(0.927367 -0.585637 0)
(0.86977 -0.626312 0)
(0.788951 -0.692433 0)
(0.664172 -0.712287 0)
(1.02835 -0.0030282 0)
(1.03014 -0.0102112 0)
(1.03329 -0.0165004 0)
(1.03737 -0.0237894 0)
(1.04246 -0.0312153 0)
(1.04797 -0.039587 0)
(1.05384 -0.0486923 0)
(1.05969 -0.0587393 0)
(1.06537 -0.0697165 0)
(1.07069 -0.0816638 0)
(1.07561 -0.0946178 0)
(1.08016 -0.108694 0)
(1.08441 -0.124084 0)
(1.0884 -0.141103 0)
(1.09214 -0.160188 0)
(1.09562 -0.181837 0)
(1.09874 -0.206625 0)
(1.10119 -0.235171 0)
(1.10233 -0.268098 0)
(1.10136 -0.306027 0)
(1.09702 -0.349333 0)
(1.08793 -0.398315 0)
(1.07396 -0.454191 0)
(1.05264 -0.51774 0)
(1.0147 -0.589458 0)
(0.959622 -0.683725 0)
(0.887401 -0.802014 0)
(0.757641 -0.864241 0)
(0.597327 -0.856062 0)
(1.02864 -0.00302914 0)
(1.03046 -0.0102023 0)
(1.03366 -0.0164864 0)
(1.0378 -0.0237661 0)
(1.04298 -0.03118 0)
(1.04859 -0.0395454 0)
(1.05459 -0.0486424 0)
(1.06061 -0.058689 0)
(1.06648 -0.0696666 0)
(1.07203 -0.0816143 0)
(1.07722 -0.0945607 0)
(1.0821 -0.108613 0)
(1.08679 -0.123959 0)
(1.09134 -0.140913 0)
(1.09584 -0.159922 0)
(1.10032 -0.181512 0)
(1.10478 -0.206297 0)
(1.10901 -0.234969 0)
(1.11242 -0.268217 0)
(1.11437 -0.306777 0)
(1.11396 -0.351325 0)
(1.10972 -0.402233 0)
(1.10124 -0.460755 0)
(1.08859 -0.530809 0)
(1.06701 -0.613011 0)
(1.03027 -0.690868 0)
(0.973249 -0.748174 0)
(0.899511 -0.854473 0)
(0.739198 -1.01819 0)
(1.0289 -0.00302968 0)
(1.03074 -0.0101934 0)
(1.03397 -0.0164723 0)
(1.03817 -0.0237424 0)
(1.04343 -0.0311445 0)
(1.04913 -0.0395023 0)
(1.05526 -0.0485897 0)
(1.06142 -0.0586333 0)
(1.06746 -0.0696073 0)
(1.07321 -0.0815502 0)
(1.07864 -0.0944821 0)
(1.08382 -0.108501 0)
(1.08888 -0.123789 0)
(1.09393 -0.140656 0)
(1.09909 -0.159554 0)
(1.10447 -0.181024 0)
(1.11012 -0.205708 0)
(1.11595 -0.234352 0)
(1.12147 -0.267707 0)
(1.12604 -0.306519 0)
(1.1292 -0.351666 0)
(1.1299 -0.403854 0)
(1.12707 -0.463887 0)
(1.12278 -0.535825 0)
(1.11568 -0.624018 0)
(1.0853 -0.723082 0)
(1.03113 -0.869154 0)
(0.969959 -1.13229 0)
(0.697191 -1.24559 0)
(0.998398 -0.00185101 0)
(0.998678 -0.0017406 0)
(0.998851 -0.00163257 0)
(0.998921 -0.00152728 0)
(0.998885 -0.00142489 0)
(0.998732 -0.00132511 0)
(0.998439 -0.00122758 0)
(0.997979 -0.00113196 0)
(0.997322 -0.00103788 0)
(0.996441 -0.000944965 0)
(0.995317 -0.000852853 0)
(0.993952 -0.000761084 0)
(0.99237 -0.000669004 0)
(0.990628 -0.0005756 0)
(0.988817 -0.000479332 0)
(0.987052 -0.000377999 0)
(0.985471 -0.000268735 0)
(0.984208 -0.000148188 0)
(0.98338 -1.2913e-05 0)
(0.998355 0.00107326 0)
(0.998138 0.00119255 0)
(0.998033 0.00132178 0)
(0.998027 0.00145913 0)
(0.998116 0.00160447 0)
(0.998309 0.00175731 0)
(0.998624 0.00191705 0)
(0.999089 0.00208308 0)
(0.999731 0.00225471 0)
(1.00058 0.0024312 0)
(1.00164 0.00261169 0)
(1.00292 0.00279524 0)
(1.00439 0.00298064 0)
(1.00598 0.0031663 0)
(1.00759 0.00334996 0)
(1.0091 0.00352846 0)
(1.01035 0.00369759 0)
(1.01122 0.00385221 0)
(1.01159 0.00398679 0)
(0.993086 -0.00414606 0)
(0.993133 -0.00368689 0)
(0.993091 -0.00322806 0)
(0.992969 -0.0027684 0)
(0.992766 -0.00230832 0)
(0.992472 -0.00184775 0)
(0.992069 -0.00138687 0)
(0.991537 -0.000926455 0)
(0.990852 -0.000467956 0)
(0.989993 -1.37348e-05 0)
(0.988948 0.000432686 0)
(0.987724 0.000866481 0)
(0.98635 0.0012816 0)
(0.984889 0.00167123 0)
(0.983434 0.00202861 0)
(0.982105 0.00234838 0)
(0.981037 0.00262802 0)
(0.980358 0.00286921 0)
(0.980161 0.00307855 0)
(0.988221 -0.00732472 0)
(0.988008 -0.00696871 0)
(0.987882 -0.00660322 0)
(0.987835 -0.00623287 0)
(0.987871 -0.00585914 0)
(0.988002 -0.0054839 0)
(0.988255 -0.00510917 0)
(0.988663 -0.00473661 0)
(0.98927 -0.00436713 0)
(0.990117 -0.00400025 0)
(0.991242 -0.00363338 0)
(0.992667 -0.00326109 0)
(0.99438 -0.00287471 0)
(0.996331 -0.00246256 0)
(0.998416 -0.00201107 0)
(1.00048 -0.00150702 0)
(1.00234 -0.000940626 0)
(1.00378 -0.000308877 0)
(1.00462 0.000381874 0)
(0.981748 -0.0118591 0)
(0.981575 -0.0111122 0)
(0.981363 -0.0103533 0)
(0.981122 -0.00958147 0)
(0.980854 -0.00879789 0)
(0.980552 -0.00800271 0)
(0.980199 -0.00719618 0)
(0.979771 -0.00637903 0)
(0.979229 -0.00555277 0)
(0.978527 -0.00472036 0)
(0.977615 -0.00388713 0)
(0.976447 -0.00306175 0)
(0.974996 -0.00225691 0)
(0.97327 -0.0014894 0)
(0.971336 -0.000778767 0)
(0.969325 -0.000144512 0)
(0.967434 0.000398299 0)
(0.965903 0.000844143 0)
(0.964972 0.00120141 0)
(0.974235 -0.0199443 0)
(0.973825 -0.0193838 0)
(0.973486 -0.0188209 0)
(0.973215 -0.0182591 0)
(0.973017 -0.0176974 0)
(0.972908 -0.0171352 0)
(0.972912 -0.0165721 0)
(0.973071 -0.0160075 0)
(0.973436 -0.0154396 0)
(0.974074 -0.0148655 0)
(0.97506 -0.0142792 0)
(0.976463 -0.0136709 0)
(0.978335 -0.0130249 0)
(0.980679 -0.0123191 0)
(0.983421 -0.0115251 0)
(0.986392 -0.0106117 0)
(0.989316 -0.00955015 0)
(0.991841 -0.00832264 0)
(0.993589 -0.00693087 0)
(0.966563 -0.025355 0)
(0.966289 -0.024204 0)
(0.965986 -0.023028 0)
(0.965665 -0.0218267 0)
(0.965325 -0.0206012 0)
(0.964961 -0.0193508 0)
(0.964557 -0.018074 0)
(0.964082 -0.0167689 0)
(0.963488 -0.0154333 0)
(0.962705 -0.0140655 0)
(0.961644 -0.0126653 0)
(0.960195 -0.0112367 0)
(0.958252 -0.00978961 0)
(0.955734 -0.00834331 0)
(0.952634 -0.00692734 0)
(0.949059 -0.00558043 0)
(0.945273 -0.00434516 0)
(0.941693 -0.00325841 0)
(0.938843 -0.00233931 0)
(0.956269 -0.0340377 0)
(0.955512 -0.0331004 0)
(0.954816 -0.0321426 0)
(0.954171 -0.0311691 0)
(0.953573 -0.0301787 0)
(0.953028 -0.0291709 0)
(0.952551 -0.0281462 0)
(0.95217 -0.0271061 0)
(0.951931 -0.0260527 0)
(0.951904 -0.0249893 0)
(0.952188 -0.0239191 0)
(0.952907 -0.0228441 0)
(0.954203 -0.0217617 0)
(0.956199 -0.0206608 0)
(0.958957 -0.019518 0)
(0.962412 -0.0182952 0)
(0.966315 -0.0169422 0)
(0.970216 -0.0154056 0)
(0.973505 -0.0136454 0)
(0.946417 -0.0418394 0)
(0.945748 -0.0401441 0)
(0.945057 -0.0384031 0)
(0.944357 -0.0366186 0)
(0.943653 -0.0347942 0)
(0.942945 -0.0329319 0)
(0.942229 -0.0310325 0)
(0.94149 -0.029097 0)
(0.940701 -0.0271251 0)
(0.939809 -0.0251153 0)
(0.938731 -0.023065 0)
(0.937345 -0.0209714 0)
(0.935485 -0.018834 0)
(0.932967 -0.0166591 0)
(0.929626 -0.014465 0)
(0.925397 -0.0122876 0)
(0.920411 -0.010181 0)
(0.915079 -0.00821056 0)
(0.910109 -0.00643677 0)
(0.933743 -0.051093 0)
(0.932407 -0.0495912 0)
(0.931148 -0.0480453 0)
(0.92995 -0.0464631 0)
(0.92881 -0.044845 0)
(0.927727 -0.0431923 0)
(0.926709 -0.0415069 0)
(0.92577 -0.039791 0)
(0.924939 -0.0380473 0)
(0.924262 -0.03628 0)
(0.923815 -0.0344945 0)
(0.923715 -0.0326984 0)
(0.924125 -0.0308997 0)
(0.925247 -0.0291033 0)
(0.927285 -0.0273054 0)
(0.930366 -0.0254848 0)
(0.934431 -0.0235961 0)
(0.939121 -0.0215699 0)
(0.94374 -0.0193272 0)
(0.921126 -0.0622982 0)
(0.919767 -0.0599149 0)
(0.918411 -0.0574558 0)
(0.917074 -0.0549259 0)
(0.915766 -0.0523297 0)
(0.914493 -0.0496694 0)
(0.913255 -0.0469471 0)
(0.912049 -0.0441655 0)
(0.910862 -0.0413273 0)
(0.90967 -0.0384351 0)
(0.908421 -0.0354904 0)
(0.907029 -0.0324937 0)
(0.905349 -0.029444 0)
(0.903173 -0.0263408 0)
(0.900241 -0.0231896 0)
(0.896301 -0.0200106 0)
(0.891227 -0.0168482 0)
(0.885201 -0.0137753 0)
(0.878856 -0.0108822 0)
(0.906591 -0.0731925 0)
(0.904403 -0.0709473 0)
(0.902325 -0.0686122 0)
(0.900343 -0.066201 0)
(0.898451 -0.0637201 0)
(0.896648 -0.0611776 0)
(0.894942 -0.058582 0)
(0.893344 -0.0559423 0)
(0.891873 -0.0532668 0)
(0.890561 -0.0505638 0)
(0.889456 -0.0478415 0)
(0.888641 -0.0451085 0)
(0.888243 -0.0423741 0)
(0.888451 -0.0396478 0)
(0.889513 -0.0369354 0)
(0.891692 -0.0342304 0)
(0.895151 -0.0315006 0)
(0.899774 -0.0286754 0)
(0.90498 -0.0256472 0)
(0.891379 -0.0884761 0)
(0.888948 -0.085231 0)
(0.886568 -0.08187 0)
(0.884268 -0.0784017 0)
(0.882063 -0.0748297 0)
(0.879967 -0.0711547 0)
(0.877988 -0.0673772 0)
(0.876127 -0.0634982 0)
(0.874382 -0.0595188 0)
(0.872737 -0.055441 0)
(0.871162 -0.0512672 0)
(0.869598 -0.0469998 0)
(0.86794 -0.0426412 0)
(0.866011 -0.0381934 0)
(0.863543 -0.0336612 0)
(0.860184 -0.0290594 0)
(0.855582 -0.0244277 0)
(0.849587 -0.0198465 0)
(0.842549 -0.0154407 0)
(0.875017 -0.102472 0)
(0.871581 -0.0991898 0)
(0.868323 -0.0957183 0)
(0.865227 -0.0920862 0)
(0.86229 -0.0883113 0)
(0.859511 -0.0844152 0)
(0.856896 -0.0804208 0)
(0.854452 -0.0763514 0)
(0.852194 -0.0722305 0)
(0.850141 -0.0680811 0)
(0.848325 -0.0639257 0)
(0.8468 -0.0597861 0)
(0.845654 -0.0556834 0)
(0.845036 -0.0516384 0)
(0.845175 -0.0476697 0)
(0.846385 -0.0437872 0)
(0.849006 -0.0399768 0)
(0.853213 -0.0361754 0)
(0.858708 -0.0322481 0)
(0.857086 -0.122289 0)
(0.853009 -0.117799 0)
(0.849076 -0.113124 0)
(0.845326 -0.108273 0)
(0.841789 -0.103255 0)
(0.838489 -0.0980747 0)
(0.835445 -0.092738 0)
(0.832668 -0.0872514 0)
(0.830164 -0.0816221 0)
(0.827928 -0.0758578 0)
(0.825947 -0.0699661 0)
(0.824182 -0.0639543 0)
(0.822561 -0.0578291 0)
(0.820952 -0.0515963 0)
(0.819119 -0.0452618 0)
(0.81669 -0.0388363 0)
(0.813159 -0.0323524 0)
(0.808022 -0.0258899 0)
(0.801137 -0.0196041 0)
(0.838267 -0.141235 0)
(0.832851 -0.136415 0)
(0.82774 -0.131192 0)
(0.822939 -0.125643 0)
(0.81846 -0.119805 0)
(0.814309 -0.113724 0)
(0.810503 -0.107452 0)
(0.807051 -0.101039 0)
(0.803967 -0.0945377 0)
(0.801259 -0.0880023 0)
(0.798942 -0.0814884 0)
(0.797042 -0.0750514 0)
(0.795603 -0.0687466 0)
(0.794713 -0.0626281 0)
(0.794539 -0.056746 0)
(0.795363 -0.0511446 0)
(0.797601 -0.0458427 0)
(0.801696 -0.0408094 0)
(0.80779 -0.0359103 0)
(0.817113 -0.166739 0)
(0.810386 -0.160285 0)
(0.803981 -0.15348 0)
(0.79797 -0.146308 0)
(0.792396 -0.138804 0)
(0.787323 -0.130997 0)
(0.782781 -0.12292 0)
(0.778802 -0.114617 0)
(0.775403 -0.106128 0)
(0.772592 -0.0974962 0)
(0.770364 -0.0887598 0)
(0.768694 -0.0799518 0)
(0.767528 -0.0710986 0)
(0.766759 -0.0622198 0)
(0.766192 -0.0533302 0)
(0.765481 -0.0444376 0)
(0.764048 -0.0355737 0)
(0.761114 -0.0268123 0)
(0.755869 -0.0183178 0)
(0.794964 -0.192959 0)
(0.786098 -0.185813 0)
(0.7778 -0.177814 0)
(0.770076 -0.169136 0)
(0.763031 -0.159867 0)
(0.756687 -0.150093 0)
(0.751104 -0.13992 0)
(0.746313 -0.12945 0)
(0.74234 -0.118792 0)
(0.739191 -0.10806 0)
(0.736865 -0.0973781 0)
(0.735353 -0.0868721 0)
(0.734649 -0.0766765 0)
(0.734768 -0.0669297 0)
(0.735778 -0.0577679 0)
(0.737865 -0.0493336 0)
(0.741418 -0.0417203 0)
(0.746983 -0.0349795 0)
(0.755254 -0.0290621 0)
(0.769998 -0.226836 0)
(0.758722 -0.217415 0)
(0.747979 -0.207153 0)
(0.738085 -0.196072 0)
(0.729057 -0.18419 0)
(0.721066 -0.171641 0)
(0.714174 -0.158521 0)
(0.708463 -0.14497 0)
(0.703966 -0.131128 0)
(0.700718 -0.117141 0)
(0.698719 -0.103147 0)
(0.697948 -0.0892761 0)
(0.698351 -0.0756361 0)
(0.699827 -0.06231 0)
(0.702191 -0.049361 0)
(0.705117 -0.0367893 0)
(0.707947 -0.0246402 0)
(0.709802 -0.0129725 0)
(0.709088 -0.00188129 0)
(0.744332 -0.263645 0)
(0.72911 -0.253002 0)
(0.715115 -0.240754 0)
(0.702096 -0.22696 0)
(0.690453 -0.211971 0)
(0.680245 -0.195901 0)
(0.671635 -0.178993 0)
(0.664696 -0.161461 0)
(0.659513 -0.143536 0)
(0.656098 -0.125455 0)
(0.654457 -0.107466 0)
(0.654552 -0.089824 0)
(0.656322 -0.0727968 0)
(0.659689 -0.0566743 0)
(0.664588 -0.0417419 0)
(0.671005 -0.0283816 0)
(0.679311 -0.0168441 0)
(0.689802 -0.00738949 0)
(0.703752 -0.000322625 0)
(0.715199 -0.309822 0)
(0.696067 -0.296481 0)
(0.677492 -0.280787 0)
(0.660669 -0.263421 0)
(0.645563 -0.244223 0)
(0.632531 -0.223585 0)
(0.621702 -0.201776 0)
(0.613259 -0.179103 0)
(0.607235 -0.155894 0)
(0.603708 -0.132474 0)
(0.602667 -0.109162 0)
(0.60409 -0.0862758 0)
(0.607907 -0.0641178 0)
(0.614 -0.0429475 0)
(0.622161 -0.0230299 0)
(0.632143 -0.00437395 0)
(0.642932 0.0128353 0)
(0.653941 0.0285944 0)
(0.662645 0.0431585 0)
(0.687212 -0.362121 0)
(0.660459 -0.346186 0)
(0.63634 -0.327577 0)
(0.614162 -0.30565 0)
(0.594648 -0.281303 0)
(0.578003 -0.254953 0)
(0.564521 -0.226999 0)
(0.554209 -0.197954 0)
(0.547251 -0.16823 0)
(0.543604 -0.138245 0)
(0.543304 -0.108418 0)
(0.54631 -0.0791627 0)
(0.552566 -0.0509197 0)
(0.561965 -0.0242032 0)
(0.574403 0.000539686 0)
(0.589456 0.0223884 0)
(0.607915 0.040909 0)
(0.628939 0.055167 0)
(0.654745 0.0636744 0)
(0.653925 -0.425327 0)
(0.620679 -0.406643 0)
(0.588976 -0.382536 0)
(0.560462 -0.354681 0)
(0.535718 -0.323715 0)