/*--------------------------------*- C++ -*----------------------------------*\
  =========                 |
  \\      /  F ield         | OpenFOAM: The Open Source CFD Toolbox
   \\    /   O peration     | Website:  https://openfoam.org
    \\  /    A nd           | Version:  10
     \\/     M anipulation  |
\*---------------------------------------------------------------------------*/
FoamFile
{
    format      ascii;
    class       volVectorField;
    location    "0";
    object      U;
}
// * * * * * * * * * * * * * * * * * * * * * * * * * * * * * * * * * * * * * //

dimensions      [0 1 -1 0 0 0 0];

internalField   nonuniform List<vector> 
18483
(
(0.999996 -0.000249606 0)
(0.999996 -0.000888274 0)
(0.999996 -0.0014055 0)
(0.999997 -0.00195336 0)
(0.999998 -0.00246457 0)
(0.999999 -0.00295014 0)
(1 -0.00339089 0)
(1 -0.00377455 0)
(1 -0.00409067 0)
(1 -0.0043344 0)
(1 -0.00450965 0)
(0.999999 -0.00462922 0)
(0.99999 -0.00471306 0)
(0.999976 -0.00479923 0)
(0.999954 -0.00492801 0)
(0.999912 -0.0051271 0)
(0.999789 -0.00536153 0)
(0.999349 -0.00554108 0)
(0.998 -0.00558379 0)
(0.995111 -0.00543271 0)
(0.991242 -0.00513287 0)
(0.988598 -0.0048158 0)
(0.988792 -0.0045173 0)
(0.991052 -0.00418762 0)
(0.993678 -0.00384064 0)
(0.995754 -0.00351961 0)
(0.997149 -0.00324266 0)
(0.99802 -0.00301202 0)
(0.998543 -0.00282291 0)
(1.00076 -0.000732864 0)
(1.00078 -0.00259594 0)
(1.00085 -0.00411142 0)
(1.0009 -0.00572816 0)
(1.00095 -0.00724255 0)
(1.00098 -0.00869333 0)
(1.00097 -0.0100223 0)
(1.00092 -0.0111955 0)
(1.00082 -0.0121798 0)
(1.00068 -0.0129571 0)
(1.00052 -0.0135205 0)
(1.00035 -0.0138855 0)
(1.0002 -0.0140656 0)
(1.00011 -0.0140221 0)
(1.00009 -0.0136952 0)
(1.00008 -0.0130381 0)
(1.00004 -0.0121188 0)
(1.0001 -0.0111425 0)
(1.0008 -0.010333 0)
(1.00295 -0.00989495 0)
(1.00637 -0.00985022 0)
(1.00883 -0.00992605 0)
(1.00823 -0.00992958 0)
(1.00532 -0.00993648 0)
(1.00222 -0.00996819 0)
(0.99999 -0.00996792 0)
(0.998608 -0.00992023 0)
(0.997799 -0.00983295 0)
(0.997329 -0.00971986 0)
(1.00218 -0.00114347 0)
(1.00226 -0.00403702 0)
(1.00244 -0.00641893 0)
(1.00262 -0.00899916 0)
(1.0028 -0.0114531 0)
(1.0029 -0.013856 0)
(1.00292 -0.0161086 0)
(1.00282 -0.0181527 0)
(1.00259 -0.0199191 0)
(1.00223 -0.0213609 0)
(1.00178 -0.0224475 0)
(1.00125 -0.0231701 0)
(1.0007 -0.023542 0)
(1.00014 -0.0236162 0)
(0.999529 -0.0235424 0)
(0.998822 -0.0235299 0)
(0.998012 -0.0236577 0)
(0.997035 -0.0237791 0)
(0.995534 -0.0236674 0)
(0.992858 -0.0231718 0)
(0.989019 -0.0223181 0)
(0.985826 -0.0214009 0)
(0.985439 -0.0206568 0)
(0.987448 -0.0199513 0)
(0.989779 -0.0191924 0)
(0.991397 -0.0184704 0)
(0.99234 -0.0178367 0)
(0.992861 -0.0172987 0)
(0.993142 -0.0168501 0)
(1.00386 -0.00148257 0)
(1.00404 -0.00522134 0)
(1.00437 -0.00833479 0)
(1.00474 -0.0117594 0)
(1.00509 -0.0150712 0)
(1.00535 -0.0183838 0)
(1.00545 -0.0215627 0)
(1.00533 -0.0245284 0)
(1.00497 -0.0271744 0)
(1.00437 -0.0294232 0)
(1.00353 -0.0312212 0)
(1.00252 -0.0325399 0)
(1.0014 -0.0334059 0)
(1.0002 -0.0339052 0)
(0.998994 -0.0340955 0)
(0.997832 -0.0338628 0)
(0.996762 -0.0330872 0)
(0.995868 -0.0319056 0)
(0.995653 -0.0306493 0)
(0.997214 -0.0295717 0)
(1.00091 -0.0287153 0)
(1.00431 -0.027895 0)
(1.00407 -0.0269924 0)
(1.00049 -0.0262635 0)
(0.996538 -0.0258387 0)
(0.993747 -0.0255478 0)
(0.991993 -0.0252786 0)
(0.990882 -0.0250042 0)
(0.990149 -0.024722 0)
(1.00561 -0.00176582 0)
(1.0059 -0.00620379 0)
(1.00642 -0.00993045 0)
(1.00701 -0.0140775 0)
(1.00762 -0.0181411 0)
(1.0081 -0.0222772 0)
(1.00836 -0.0263276 0)
(1.0083 -0.0301995 0)
(1.00788 -0.0337535 0)
(1.00708 -0.0368729 0)
(1.00592 -0.0394644 0)
(1.00448 -0.0414696 0)
(1.00284 -0.0428851 0)
(1.00112 -0.0437466 0)
(0.9994 -0.0441119 0)
(0.997732 -0.0441445 0)
(0.99606 -0.0441333 0)
(0.994265 -0.044233 0)
(0.991885 -0.0442712 0)
(0.987852 -0.0439994 0)
(0.981661 -0.0433694 0)
(0.975778 -0.0425931 0)
(0.974276 -0.0418503 0)
(0.977085 -0.0409069 0)
(0.9804 -0.0396403 0)
(0.982351 -0.0383252 0)
(0.983288 -0.0371392 0)
(0.983701 -0.0361167 0)
(0.983855 -0.0352581 0)
(1.0074 -0.00200284 0)
(1.00781 -0.00701723 0)
(1.00854 -0.0112496 0)
(1.00941 -0.0159958 0)
(1.01031 -0.02069 0)
(1.01109 -0.0255354 0)
(1.01161 -0.0303609 0)
(1.01172 -0.0350691 0)
(1.01135 -0.0394911 0)
(1.01045 -0.0434733 0)
(1.00902 -0.046882 0)
(1.00714 -0.0496266 0)
(1.00491 -0.0516671 0)
(1.00244 -0.0529949 0)
(0.99986 -0.0536398 0)
(0.997233 -0.0536295 0)
(0.994656 -0.0528861 0)
(0.992294 -0.0513746 0)
(0.990773 -0.0493834 0)
(0.991594 -0.0473954 0)
(0.995725 -0.0457195 0)
(1.00018 -0.0443029 0)
(0.999487 -0.0429494 0)
(0.993408 -0.0418919 0)
(0.987048 -0.0413262 0)
(0.983005 -0.0409336 0)
(0.980604 -0.0405002 0)
(0.979073 -0.0400175 0)
(0.978028 -0.0394967 0)
(1.0092 -0.00219709 0)
(1.00975 -0.00767509 0)
(1.01071 -0.0123126 0)
(1.01187 -0.0175399 0)
(1.01312 -0.0227437 0)
(1.01426 -0.0281789 0)
(1.01511 -0.0336721 0)
(1.01549 -0.0391341 0)
(1.01526 -0.0443829 0)
(1.01432 -0.0492461 0)
(1.01265 -0.05356 0)
(1.01032 -0.0571916 0)
(1.00746 -0.0600534 0)
(1.00424 -0.062101 0)
(1.0008 -0.0633569 0)
(0.9973 -0.0639459 0)
(0.993841 -0.0642108 0)
(0.990439 -0.0645658 0)
(0.98672 -0.0650398 0)
(0.981255 -0.0652233 0)
(0.972681 -0.0646947 0)
(0.963721 -0.0634679 0)
(0.960726 -0.0619845 0)
(0.964471 -0.0602758 0)
(0.968716 -0.0581424 0)
(0.970392 -0.0559537 0)
(0.970665 -0.0540134 0)
(0.970436 -0.0523363 0)
(0.97001 -0.0509179 0)
(1.011 -0.00235159 0)
(1.01169 -0.00819029 0)
(1.01286 -0.0131427 0)
(1.01433 -0.0187456 0)
(1.01596 -0.0243514 0)
(1.0175 -0.0302694 0)
(1.01874 -0.0363352 0)
(1.01946 -0.0424832 0)
(1.01946 -0.0485345 0)
(1.0186 -0.0543055 0)
(1.01683 -0.059593 0)
(1.01422 -0.0642013 0)
(1.01088 -0.0679723 0)
(1.007 -0.0707989 0)
(1.00274 -0.0726368 0)
(0.998257 -0.0734639 0)
(0.993775 -0.0732118 0)
(0.989605 -0.0717019 0)
(0.986325 -0.0690228 0)
(0.985354 -0.0658641 0)
(0.988296 -0.0631157 0)
(0.992765 -0.0612868 0)
(0.991551 -0.0599629 0)
(0.982792 -0.0587727 0)
(0.973561 -0.05803 0)
(0.968107 -0.0574983 0)
(0.964909 -0.0568274 0)
(0.962707 -0.0560616 0)
(0.961107 -0.055236 0)
(1.01274 -0.00247124 0)
(1.01356 -0.00858202 0)
(1.01496 -0.0137731 0)
(1.01673 -0.0196634 0)
(1.01873 -0.0255818 0)
(1.0207 -0.0318929 0)
(1.02239 -0.0384496 0)
(1.02353 -0.0452194 0)
(1.02389 -0.0520355 0)
(1.02328 -0.05871 0)
(1.0216 -0.0650126 0)
(1.01884 -0.0707107 0)
(1.01508 -0.0756065 0)
(1.01046 -0.079562 0)
(1.00515 -0.0825241 0)
(0.999375 -0.0845177 0)
(0.993404 -0.0857658 0)
(0.987461 -0.0867827 0)
(0.981441 -0.0879864 0)
(0.974282 -0.0890641 0)
(0.96423 -0.0890652 0)
(0.952911 -0.0873623 0)
(0.94739 -0.0846571 0)
(0.950481 -0.081923 0)
(0.954807 -0.0789699 0)
(0.955499 -0.075871 0)
(0.954538 -0.0731401 0)
(0.953309 -0.0707835 0)
(0.952014 -0.0687713 0)
(1.01439 -0.00256229 0)
(1.01534 -0.00887334 0)
(1.01694 -0.0142417 0)
(1.01901 -0.0203489 0)
(1.02139 -0.0265071 0)
(1.02379 -0.0331344 0)
(1.02597 -0.040106 0)
(1.02761 -0.0474276 0)
(1.02845 -0.054957 0)
(1.02823 -0.0625241 0)
(1.02677 -0.0699009 0)
(1.024 -0.0768401 0)
(1.01996 -0.083097 0)
(1.01478 -0.0884457 0)
(1.00873 -0.092708 0)
(1.0021 -0.0957178 0)
(0.995279 -0.0972918 0)
(0.988687 -0.0971108 0)
(0.982837 -0.0949234 0)
(0.978733 -0.0912329 0)
(0.97819 -0.08743 0)
(0.98076 -0.0849411 0)
(0.979572 -0.0837908 0)
(0.969719 -0.0826417 0)
(0.957851 -0.0814782 0)
(0.950717 -0.0806859 0)
(0.946546 -0.0797161 0)
(0.943388 -0.0785656 0)
(0.940983 -0.0773558 0)
(1.01593 -0.00263089 0)
(1.01699 -0.00908627 0)
(1.0188 -0.0145842 0)
(1.02115 -0.0208522 0)
(1.02389 -0.02719 0)
(1.02674 -0.0340663 0)
(1.02943 -0.0413803 0)
(1.03163 -0.049182 0)
(1.03303 -0.0573675 0)
(1.03331 -0.065803 0)
(1.03225 -0.0742754 0)
(1.02971 -0.0825178 0)
(1.02567 -0.0902236 0)
(1.02026 -0.0970739 0)
(1.01363 -0.102811 0)
(1.00601 -0.107268 0)
(0.997622 -0.110455 0)
(0.988742 -0.112766 0)
(0.979588 -0.114934 0)
(0.969941 -0.117226 0)
(0.958544 -0.118711 0)
(0.945353 -0.117978 0)
(0.935806 -0.114847 0)
(0.935374 -0.111112 0)
(0.938637 -0.10758 0)
(0.938195 -0.10369 0)
(0.935625 -0.100103 0)
(0.933167 -0.0970715 0)
(0.930815 -0.0944426 0)
(1.01735 -0.0026821 0)
(1.01852 -0.00923877 0)
(1.0205 -0.0148289 0)
(1.02312 -0.0212129 0)
(1.02622 -0.0276798 0)
(1.02951 -0.0347449 0)
(1.03272 -0.0423329 0)
(1.03552 -0.0505399 0)
(1.03755 -0.0593074 0)
(1.03848 -0.0685444 0)
(1.03802 -0.0780606 0)
(1.03596 -0.0875895 0)
(1.0322 -0.0968084 0)
(1.02672 -0.105371 0)
(1.01961 -0.11298 0)
(1.01108 -0.119387 0)
(1.00153 -0.12432 0)
(0.991586 -0.127289 0)
(0.982156 -0.127615 0)
(0.9742 -0.125212 0)
(0.969097 -0.1212 0)
(0.967875 -0.117633 0)
(0.966261 -0.116152 0)
(0.956676 -0.115464 0)
(0.942246 -0.114021 0)
(0.932309 -0.112806 0)
(0.926691 -0.111572 0)
(0.922195 -0.109904 0)
(0.918649 -0.108156 0)
(1.01864 -0.00271978 0)
(1.01991 -0.00934444 0)
(1.02207 -0.0149973 0)
(1.02494 -0.0214607 0)
(1.02837 -0.0280135 0)
(1.03209 -0.0352135 0)
(1.03582 -0.0430092 0)
(1.03923 -0.05154 0)
(1.04197 -0.0607937 0)
(1.04366 -0.0707291 0)
(1.04396 -0.0811996 0)
(1.04257 -0.0919736 0)
(1.03929 -0.102745 0)
(1.03402 -0.113138 0)
(1.02679 -0.122735 0)
(1.01783 -0.131103 0)
(1.00742 -0.137847 0)
(0.995909 -0.142801 0)
(0.983618 -0.146623 0)
(0.970729 -0.15044 0)
(0.956923 -0.154139 0)
(0.941526 -0.155868 0)
(0.927227 -0.153816 0)
(0.920564 -0.149328 0)
(0.920925 -0.145031 0)
(0.919418 -0.140569 0)
(0.914841 -0.135958 0)
(0.91066 -0.132125 0)
(0.906939 -0.128778 0)
(1.01982 -0.0027469 0)
(1.02118 -0.00941353 0)
(1.02349 -0.0151055 0)
(1.02659 -0.0216184 0)
(1.03033 -0.02822 0)
(1.03446 -0.0355064 0)
(1.0387 -0.0434459 0)
(1.04274 -0.0522161 0)
(1.04621 -0.0618527 0)
(1.04872 -0.0723725 0)
(1.04988 -0.0836895 0)
(1.04932 -0.0956225 0)
(1.04676 -0.107885 0)
(1.04203 -0.120079 0)
(1.03505 -0.131722 0)
(1.02584 -0.142336 0)
(1.01452 -0.151549 0)
(1.00153 -0.158957 0)
(0.987924 -0.16383 0)
(0.975315 -0.165188 0)
(0.965056 -0.16304 0)
(0.958496 -0.159292 0)
(0.954301 -0.156999 0)
(0.944943 -0.156817 0)
(0.928261 -0.155738 0)
(0.913762 -0.153809 0)
(0.905447 -0.152124 0)
(0.899032 -0.149732 0)
(0.893689 -0.147056 0)
(1.02089 -0.00276571 0)
(1.02233 -0.00945382 0)
(1.02478 -0.0151658 0)
(1.02809 -0.0217036 0)
(1.03212 -0.0283229 0)
(1.03663 -0.0356529 0)
(1.04136 -0.0436777 0)
(1.046 -0.0526085 0)
(1.0502 -0.0625285 0)
(1.05355 -0.0735147 0)
(1.05564 -0.0855451 0)
(1.05607 -0.0984945 0)
(1.05448 -0.112116 0)
(1.05058 -0.126041 0)
(1.04413 -0.139798 0)
(1.03498 -0.152843 0)
(1.02326 -0.164612 0)
(1.00947 -0.174462 0)
(0.99435 -0.182046 0)
(0.978311 -0.188342 0)
(0.961106 -0.194668 0)
(0.942425 -0.199953 0)
(0.922972 -0.201093 0)
(0.907979 -0.197096 0)
(0.902211 -0.191611 0)
(0.899051 -0.186594 0)
(0.892242 -0.180865 0)
(0.885284 -0.175722 0)
(0.879545 -0.171346 0)
(1.02186 -0.00277799 0)
(1.02336 -0.00947145 0)
(1.02595 -0.0151882 0)
(1.02945 -0.0217309 0)
(1.03375 -0.028342 0)
(1.0386 -0.0356801 0)
(1.04378 -0.0437396 0)
(1.049 -0.0527608 0)
(1.05391 -0.0628707 0)
(1.05812 -0.0742013 0)
(1.06121 -0.0867935 0)
(1.06274 -0.10059 0)
(1.06229 -0.115412 0)
(1.05945 -0.130954 0)
(1.05385 -0.146764 0)
(1.04525 -0.162221 0)
(1.03359 -0.176689 0)
(1.01916 -0.189601 0)
(1.00263 -0.20033 0)
(0.985308 -0.207871 0)
(0.969117 -0.210832 0)
(0.955827 -0.209227 0)
(0.946046 -0.206429 0)
(0.935204 -0.206365 0)
(0.91677 -0.206721 0)
(0.896034 -0.204433 0)
(0.882203 -0.201801 0)
(0.872702 -0.198597 0)
(0.864407 -0.194448 0)
(1.02274 -0.00278515 0)
(1.0243 -0.00947138 0)
(1.02701 -0.015181 0)
(1.03068 -0.0217125 0)
(1.03521 -0.0282952 0)
(1.04039 -0.0356125 0)
(1.04599 -0.0436644 0)
(1.05174 -0.0527148 0)
(1.05734 -0.0629282 0)
(1.0624 -0.0744853 0)
(1.0665 -0.0874897 0)
(1.06919 -0.101963 0)
(1.06999 -0.117806 0)
(1.0684 -0.134782 0)
(1.06399 -0.152488 0)
(1.05629 -0.170319 0)
(1.04506 -0.187636 0)
(1.03049 -0.203801 0)
(1.01328 -0.217916 0)
(0.994226 -0.229438 0)
(0.973455 -0.239588 0)
(0.950616 -0.249507 0)
(0.925539 -0.256441 0)
(0.900936 -0.25586 0)
(0.884593 -0.249722 0)
(0.87687 -0.243719 0)
(0.867637 -0.237223 0)
(0.856282 -0.230014 0)
(0.847015 -0.223921 0)
(1.02353 -0.00278836 0)
(1.02515 -0.00945783 0)
(1.02797 -0.0151512 0)
(1.03179 -0.0216589 0)
(1.03654 -0.0281979 0)
(1.042 -0.0354724 0)
(1.04798 -0.043482 0)
(1.05423 -0.0525105 0)
(1.06047 -0.0627526 0)
(1.06635 -0.0744329 0)
(1.07145 -0.0877153 0)
(1.0753 -0.1027 0)
(1.0774 -0.119367 0)
(1.07723 -0.137559 0)
(1.07422 -0.156966 0)
(1.06777 -0.177059 0)
(1.05747 -0.197185 0)
(1.04339 -0.216671 0)
(1.02601 -0.234647 0)
(1.00585 -0.250001 0)
(0.98423 -0.261184 0)
(0.963529 -0.26623 0)
(0.945563 -0.265692 0)
(0.92962 -0.265405 0)
(0.909113 -0.268123 0)
(0.881668 -0.267723 0)
(0.857815 -0.263929 0)
(0.842243 -0.259833 0)
(0.829243 -0.253936 0)
(1.02426 -0.00278856 0)
(1.02593 -0.00943433 0)
(1.02884 -0.015105 0)
(1.03279 -0.0215797 0)
(1.03774 -0.0280638 0)
(1.04345 -0.0352789 0)
(1.04977 -0.0432194 0)
(1.05648 -0.0521858 0)
(1.06332 -0.0623966 0)
(1.06995 -0.0741151 0)
(1.07599 -0.0875578 0)
(1.08099 -0.102896 0)
(1.08444 -0.120191 0)
(1.08576 -0.139372 0)
(1.08434 -0.160243 0)
(1.07946 -0.182376 0)
(1.07057 -0.205158 0)
(1.05751 -0.227954 0)
(1.04052 -0.24989 0)
(1.01992 -0.269674 0)
(0.99614 -0.28679 0)
(0.969175 -0.302772 0)
(0.938479 -0.31782 0)
(0.904485 -0.326422 0)
(0.873614 -0.323773 0)
(0.854584 -0.316366 0)
(0.841172 -0.309629 0)
(0.823995 -0.300529 0)
(0.808015 -0.291529 0)
(1.02492 -0.00278651 0)
(1.02663 -0.0094038 0)
(1.02962 -0.0150475 0)
(1.03369 -0.0214826 0)
(1.03882 -0.0279043 0)
(1.04476 -0.0350487 0)
(1.05139 -0.0429008 0)
(1.05851 -0.0517753 0)
(1.06589 -0.0619093 0)
(1.07322 -0.0735969 0)
(1.08015 -0.0870986 0)
(1.08626 -0.102648 0)
(1.09104 -0.120388 0)
(1.0939 -0.140336 0)
(1.09418 -0.16241 0)
(1.09111 -0.186312 0)
(1.08398 -0.211532 0)
(1.07244 -0.237501 0)
(1.05649 -0.263402 0)
(1.03618 -0.287951 0)
(1.01191 -0.309647 0)
(0.985214 -0.326044 0)
(0.958334 -0.33408 0)
(0.932964 -0.336043 0)
(0.907848 -0.340927 0)
(0.875171 -0.346716 0)
(0.837456 -0.344552 0)
(0.808911 -0.339276 0)
(0.788102 -0.332307 0)
(1.02551 -0.00278284 0)
(1.02727 -0.00936864 0)
(1.03034 -0.0149829 0)
(1.0345 -0.0213742 0)
(1.03979 -0.0277291 0)
(1.04593 -0.0347957 0)
(1.05283 -0.0425462 0)
(1.06033 -0.0513083 0)
(1.06819 -0.061331 0)
(1.07617 -0.0729329 0)
(1.08394 -0.0864105 0)
(1.0911 -0.102051 0)
(1.09718 -0.120076 0)
(1.10156 -0.140584 0)
(1.10358 -0.163601 0)
(1.10245 -0.188979 0)
(1.09735 -0.216342 0)
(1.08778 -0.245204 0)
(1.07351 -0.274842 0)
(1.05432 -0.304016 0)
(1.03016 -0.331309 0)
(1.00096 -0.356521 0)
(0.965878 -0.381541 0)
(0.924393 -0.404755 0)
(0.87882 -0.415512 0)
(0.839776 -0.410704 0)
(0.814577 -0.403458 0)
(0.790795 -0.395128 0)
(0.763702 -0.382434 0)
(1.02605 -0.00277806 0)
(1.02784 -0.00933081 0)
(1.03097 -0.0149144 0)
(1.03523 -0.0212598 0)
(1.04066 -0.0275461 0)
(1.04697 -0.0345312 0)
(1.05412 -0.0421723 0)
(1.06194 -0.0508084 0)
(1.07025 -0.0606955 0)
(1.07883 -0.0721703 0)
(1.08737 -0.0855605 0)
(1.09551 -0.101197 0)
(1.10281 -0.119371 0)
(1.10866 -0.140257 0)
(1.11241 -0.163976 0)
(1.11327 -0.190531 0)
(1.11041 -0.219692 0)
(1.10316 -0.251091 0)
(1.09105 -0.284139 0)
(1.07367 -0.317825 0)
(1.05068 -0.35088 0)
(1.02215 -0.381409 0)
(0.989321 -0.405348 0)
(0.954339 -0.418294 0)
(0.919663 -0.425873 0)
(0.881746 -0.440132 0)
(0.831484 -0.449531 0)
(0.779861 -0.444994 0)
(0.742827 -0.437812 0)
(1.02653 -0.0027726 0)
(1.02835 -0.00929188 0)
(1.03154 -0.0148447 0)
(1.03587 -0.0211435 0)
(1.04143 -0.0273615 0)
(1.04789 -0.0342642 0)
(1.05526 -0.0417923 0)
(1.06337 -0.050295 0)
(1.07208 -0.0600305 0)
(1.08119 -0.0713496 0)
(1.09043 -0.0846062 0)
(1.09947 -0.100165 0)
(1.1079 -0.118376 0)
(1.11517 -0.139485 0)
(1.12059 -0.16369 0)
(1.12346 -0.191134 0)
(1.12292 -0.22174 0)
(1.1182 -0.255274 0)
(1.10867 -0.291305 0)
(1.09374 -0.329011 0)
(1.07299 -0.367272 0)
(1.04562 -0.404686 0)
(1.01001 -0.441416 0)
(0.965199 -0.480657 0)
(0.910868 -0.517786 0)
(0.849059 -0.532832 0)
(0.796361 -0.526577 0)
(0.759234 -0.520926 0)
(0.718938 -0.508597 0)
(1.02696 -0.00276679 0)
(1.0288 -0.0092531 0)
(1.03205 -0.014776 0)
(1.03644 -0.0210287 0)
(1.04211 -0.0271802 0)
(1.0487 -0.0340015 0)
(1.05626 -0.0414166 0)
(1.06463 -0.0497834 0)
(1.0737 -0.0593592 0)
(1.08328 -0.0705049 0)
(1.09315 -0.0835955 0)
(1.10301 -0.0990231 0)
(1.11249 -0.117181 0)
(1.12108 -0.138384 0)
(1.12811 -0.162894 0)
(1.13293 -0.190972 0)
(1.13471 -0.222689 0)
(1.13262 -0.257946 0)
(1.12593 -0.296474 0)
(1.11391 -0.33765 0)
(1.09604 -0.380756 0)
(1.07131 -0.424902 0)
(1.03855 -0.46763 0)
(0.999072 -0.50281 0)
(0.954869 -0.524113 0)
(0.907755 -0.543465 0)
(0.850586 -0.575235 0)
(0.773041 -0.588758 0)
(0.699421 -0.580339 0)
(1.02734 -0.00276086 0)
(1.0292 -0.00921538 0)
(1.0325 -0.0147095 0)
(1.03695 -0.0209177 0)
(1.04271 -0.0270056 0)
(1.04941 -0.0337482 0)
(1.05715 -0.041053 0)
(1.06574 -0.0492855 0)
(1.07512 -0.058699 0)
(1.08512 -0.0696625 0)
(1.09555 -0.0825657 0)
(1.10616 -0.0978233 0)
(1.1166 -0.115862 0)
(1.12641 -0.137055 0)
(1.13496 -0.161723 0)
(1.14163 -0.190215 0)
(1.14565 -0.222743 0)
(1.14619 -0.259322 0)
(1.14247 -0.299851 0)
(1.13371 -0.343925 0)
(1.11927 -0.391037 0)
(1.09834 -0.440653 0)
(1.06864 -0.491594 0)
(1.02674 -0.544945 0)
(0.972212 -0.60769 0)
(0.902576 -0.670701 0)
(0.814658 -0.694517 0)
(0.734774 -0.688131 0)
(0.67463 -0.68438 0)
(1.02768 -0.00275501 0)
(1.02956 -0.0091794 0)
(1.03289 -0.0146464 0)
(1.0374 -0.0208122 0)
(1.04324 -0.0268404 0)
(1.05004 -0.033508 0)
(1.05792 -0.0407073 0)
(1.06671 -0.04881 0)
(1.07636 -0.0580634 0)
(1.08673 -0.0688424 0)
(1.09767 -0.0815468 0)
(1.10894 -0.0966097 0)
(1.12025 -0.114483 0)
(1.13117 -0.135588 0)
(1.14113 -0.160297 0)
(1.14952 -0.189027 0)
(1.15569 -0.222108 0)
(1.15877 -0.259657 0)
(1.15799 -0.301706 0)
(1.15267 -0.348092 0)
(1.14204 -0.398469 0)
(1.12519 -0.452769 0)
(1.10053 -0.51124 0)
(1.06593 -0.571619 0)
(1.0212 -0.624159 0)
(0.966356 -0.658437 0)
(0.903076 -0.703332 0)
(0.81313 -0.773621 0)
(0.681229 -0.787279 0)
(1.02798 -0.00274936 0)
(1.02988 -0.0091456 0)
(1.03324 -0.0145873 0)
(1.03779 -0.0207134 0)
(1.0437 -0.0266861 0)
(1.05059 -0.0332833 0)
(1.0586 -0.0403831 0)
(1.06756 -0.0483624 0)
(1.07744 -0.0574613 0)
(1.08814 -0.0680588 0)
(1.09952 -0.0805609 0)
(1.11139 -0.0954155 0)
(1.12347 -0.113094 0)
(1.13539 -0.134054 0)
(1.14663 -0.158714 0)
(1.15662 -0.187541 0)
(1.16478 -0.22096 0)
(1.17029 -0.259184 0)
(1.17233 -0.302323 0)
(1.17043 -0.350438 0)
(1.16386 -0.40343 0)
(1.15146 -0.461208 0)
(1.13267 -0.524545 0)
(1.10501 -0.593992 0)
(1.05924 -0.670919 0)
(0.99574 -0.771918 0)
(0.914974 -0.891933 0)
(0.778318 -0.944442 0)
(0.616612 -0.933526 0)
(1.02824 -0.002744 0)
(1.03016 -0.00911429 0)
(1.03355 -0.0145326 0)
(1.03814 -0.020622 0)
(1.04411 -0.0265437 0)
(1.05107 -0.0330755 0)
(1.05919 -0.0400829 0)
(1.0683 -0.0479468 0)
(1.07839 -0.0568992 0)
(1.08937 -0.0673222 0)
(1.10113 -0.0796252 0)
(1.11352 -0.0942674 0)
(1.12629 -0.111735 0)
(1.1391 -0.132513 0)
(1.1515 -0.157058 0)
(1.16295 -0.185877 0)
(1.17294 -0.219465 0)
(1.1807 -0.258124 0)
(1.1854 -0.302014 0)
(1.18669 -0.351318 0)
(1.18425 -0.406253 0)
(1.17664 -0.466707 0)
(1.16306 -0.533494 0)
(1.14372 -0.610543 0)
(1.1147 -0.698122 0)
(1.07053 -0.776795 0)
(1.00464 -0.829183 0)
(0.921487 -0.940538 0)
(0.750636 -1.10494 0)
(1.02848 -0.00273897 0)
(1.03041 -0.00908561 0)
(1.03382 -0.0144825 0)
(1.03845 -0.0205384 0)
(1.04447 -0.0264135 0)
(1.05149 -0.0328854 0)
(1.05971 -0.0398079 0)
(1.06894 -0.0475649 0)
(1.07921 -0.0563804 0)
(1.09043 -0.0666387 0)
(1.10254 -0.0787503 0)
(1.11538 -0.0931826 0)
(1.12876 -0.110433 0)
(1.14236 -0.131006 0)
(1.15578 -0.155391 0)
(1.16855 -0.184125 0)
(1.18018 -0.217751 0)
(1.19001 -0.256652 0)
(1.19718 -0.301029 0)
(1.2014 -0.351087 0)
(1.20279 -0.407289 0)
(1.20009 -0.469767 0)
(1.19192 -0.538781 0)
(1.18105 -0.618491 0)
(1.16633 -0.712845 0)
(1.12469 -0.815976 0)
(1.05776 -0.970645 0)
(0.984606 -1.23447 0)
(0.695346 -1.31363 0)
(0.99885 -0.00266643 0)
(0.99903 -0.00252343 0)
(0.999113 -0.00238031 0)
(0.999102 -0.00223673 0)
(0.99899 -0.00209274 0)
(0.998761 -0.0019485 0)
(0.998393 -0.00180482 0)
(0.997857 -0.0016633 0)
(0.997121 -0.00152653 0)
(0.996158 -0.00139819 0)
(0.994953 -0.001283 0)
(0.993508 -0.00118653 0)
(0.991854 -0.00111461 0)
(0.990055 -0.00107256 0)
(0.988213 -0.00106418 0)
(0.986458 -0.00109065 0)
(0.984939 -0.00114979 0)
(0.983806 -0.00123565 0)
(0.98318 -0.00133883 0)
(0.997053 -0.00959666 0)
(0.996884 -0.00946979 0)
(0.996794 -0.00933911 0)
(0.996785 -0.00920743 0)
(0.996873 -0.00907522 0)
(0.997084 -0.00894276 0)
(0.997458 -0.00880979 0)
(0.998045 -0.008675 0)
(0.998901 -0.00853581 0)
(1.00008 -0.00838799 0)
(1.00161 -0.00822556 0)
(1.00352 -0.00804095 0)
(1.00576 -0.00782562 0)
(1.00826 -0.00757127 0)
(1.01086 -0.0072715 0)
(1.01336 -0.00692356 0)
(1.01553 -0.00652997 0)
(1.01714 -0.00609918 0)
(1.01801 -0.00564513 0)
(0.99329 -0.016472 0)
(0.993364 -0.0161184 0)
(0.993381 -0.0157554 0)
(0.993337 -0.015383 0)
(0.993221 -0.0150022 0)
(0.993008 -0.0146138 0)
(0.992663 -0.014219 0)
(0.992138 -0.0138194 0)
(0.991378 -0.0134177 0)
(0.990324 -0.0130176 0)
(0.988928 -0.0126239 0)
(0.987163 -0.0122424 0)
(0.985046 -0.0118791 0)
(0.982651 -0.0115388 0)
(0.980119 -0.0112244 0)
(0.977651 -0.0109346 0)
(0.97549 -0.0106637 0)
(0.973883 -0.0104013 0)
(0.973034 -0.0101334 0)
(0.989639 -0.0244435 0)
(0.989248 -0.0241673 0)
(0.988932 -0.0238847 0)
(0.988694 -0.0235973 0)
(0.988551 -0.0233033 0)
(0.988531 -0.023001 0)
(0.988676 -0.0226884 0)
(0.989044 -0.0223622 0)
(0.989698 -0.0220185 0)
(0.990704 -0.0216518 0)
(0.992112 -0.0212557 0)
(0.99394 -0.0208227 0)
(0.996154 -0.0203459 0)
(0.998646 -0.01982 0)
(1.00123 -0.0192429 0)
(1.00367 -0.0186179 0)
(1.00567 -0.017954 0)
(1.00697 -0.0172654 0)
(1.00736 -0.0165695 0)
(0.983881 -0.034533 0)
(0.983837 -0.0338598 0)
(0.98373 -0.0331784 0)
(0.983557 -0.0324884 0)
(0.983301 -0.031791 0)
(0.982933 -0.0310862 0)
(0.982407 -0.0303739 0)
(0.981666 -0.0296542 0)
(0.98064 -0.0289278 0)
(0.979255 -0.0281958 0)
(0.977452 -0.0274601 0)
(0.975202 -0.0267229 0)
(0.972534 -0.0259862 0)
(0.969555 -0.0252507 0)
(0.966461 -0.0245147 0)
(0.963523 -0.0237728 0)
(0.96105 -0.0230166 0)
(0.959337 -0.0222355 0)
(0.95859 -0.0214197 0)
(0.977264 -0.0389673 0)
(0.976637 -0.0384273 0)
(0.976078 -0.0378571 0)
(0.975584 -0.0372593 0)
(0.975162 -0.0366323 0)
(0.974835 -0.035975 0)
(0.974641 -0.0352867 0)
(0.974633 -0.0345667 0)
(0.974876 -0.0338142 0)
(0.975436 -0.0330283 0)
(0.976369 -0.0322084 0)
(0.977692 -0.0313544 0)
(0.979367 -0.0304672 0)
(0.981275 -0.0295502 0)
(0.983214 -0.02861 0)
(0.984922 -0.0276571 0)
(0.986115 -0.0267054 0)
(0.986555 -0.0257696 0)
(0.986103 -0.0248622 0)
(0.969527 -0.0497112 0)
(0.969011 -0.0485847 0)
(0.968436 -0.0474412 0)
(0.967801 -0.0462812 0)
(0.967092 -0.0451075 0)
(0.966283 -0.043922 0)
(0.965336 -0.0427261 0)
(0.964199 -0.0415221 0)
(0.962812 -0.0403124 0)
(0.961112 -0.0391002 0)
(0.959052 -0.0378895 0)
(0.956619 -0.0366845 0)
(0.953862 -0.0354894 0)
(0.950916 -0.0343073 0)
(0.948 -0.0331381 0)
(0.945405 -0.0319781 0)
(0.943431 -0.0308193 0)
(0.942322 -0.0296508 0)
(0.942192 -0.0284623 0)
(0.959866 -0.0543951 0)
(0.958796 -0.0535368 0)
(0.957797 -0.0526288 0)
(0.956864 -0.0516767 0)
(0.956005 -0.0506807 0)
(0.955244 -0.0496424 0)
(0.954617 -0.0485644 0)
(0.954178 -0.0474493 0)
(0.953992 -0.0463004 0)
(0.954128 -0.0451199 0)
(0.954644 -0.0439092 0)
(0.955558 -0.042668 0)
(0.956829 -0.0413938 0)
(0.958326 -0.040083 0)
(0.959833 -0.0387325 0)
(0.961069 -0.0373417 0)
(0.961745 -0.0359152 0)
(0.961644 -0.0344627 0)
(0.96068 -0.0329971 0)
(0.950792 -0.0670526 0)
(0.94961 -0.0654389 0)
(0.948401 -0.0637946 0)
(0.947172 -0.062121 0)
(0.945919 -0.0604223 0)
(0.944627 -0.0587007 0)
(0.943271 -0.0569583 0)
(0.941811 -0.055197 0)
(0.940193 -0.0534191 0)
(0.938353 -0.0516275 0)
(0.936234 -0.0498272 0)
(0.933802 -0.0480259 0)
(0.931081 -0.0462348 0)
(0.928179 -0.0444681 0)
(0.925304 -0.0427403 0)
(0.922744 -0.0410624 0)
(0.920816 -0.0394364 0)
(0.919771 -0.0378521 0)
(0.919711 -0.0362888 0)
(0.939054 -0.0761277 0)
(0.93735 -0.074881 0)
(0.935732 -0.0735648 0)
(0.934197 -0.0721888 0)
(0.932754 -0.0707556 0)
(0.931423 -0.0692698 0)
(0.930238 -0.0677371 0)
(0.929246 -0.0661638 0)
(0.92851 -0.0645557 0)
(0.928102 -0.0629174 0)
(0.928093 -0.0612498 0)
(0.928531 -0.0595482 0)
(0.929406 -0.0577998 0)
(0.930617 -0.0559832 0)
(0.931955 -0.054071 0)
(0.93311 -0.0520362 0)
(0.933729 -0.0498623 0)
(0.933513 -0.0475532 0)
(0.932316 -0.0451365 0)
(0.9287 -0.0921864 0)
(0.926727 -0.090053 0)
(0.924777 -0.0878664 0)
(0.922866 -0.0856291 0)
(0.921001 -0.0833438 0)
(0.919178 -0.0810113 0)
(0.917383 -0.0786312 0)
(0.915584 -0.0762025 0)
(0.913728 -0.0737238 0)
(0.91174 -0.0711943 0)
(0.909526 -0.068616 0)
(0.906993 -0.0659965 0)
(0.904082 -0.0633532 0)
(0.900814 -0.0607151 0)
(0.89734 -0.0581219 0)
(0.893958 -0.0556165 0)
(0.89108 -0.0532311 0)
(0.889128 -0.0509711 0)
(0.888376 -0.048804 0)
(0.915778 -0.106386 0)
(0.913208 -0.104582 0)
(0.910752 -0.102671 0)
(0.908405 -0.100664 0)
(0.906173 -0.0985727 0)
(0.904071 -0.0964042 0)
(0.902121 -0.0941695 0)
(0.900355 -0.0918793 0)
(0.898826 -0.0895445 0)
(0.897601 -0.087175 0)
(0.89677 -0.0847777 0)
(0.896429 -0.0823524 0)
(0.896648 -0.0798863 0)
(0.897427 -0.077348 0)
(0.898634 -0.0746849 0)
(0.899964 -0.071829 0)
(0.900951 -0.0687149 0)
(0.901071 -0.0653093 0)
(0.89992 -0.061638 0)
(0.903621 -0.125843 0)
(0.900597 -0.123045 0)
(0.897654 -0.120144 0)
(0.894817 -0.117149 0)
(0.8921 -0.114058 0)
(0.889506 -0.110869 0)
(0.887029 -0.107579 0)
(0.884649 -0.104184 0)
(0.882322 -0.10068 0)
(0.879973 -0.0970627 0)
(0.877491 -0.0933267 0)
(0.874726 -0.0894733 0)
(0.871512 -0.0855151 0)
(0.867718 -0.0814871 0)
(0.863333 -0.0774548 0)
(0.858565 -0.0735149 0)
(0.853902 -0.0697789 0)
(0.850066 -0.0663342 0)
(0.847789 -0.0631965 0)
(0.889413 -0.1444 0)
(0.885553 -0.141644 0)
(0.88186 -0.138703 0)
(0.878328 -0.135591 0)
(0.874959 -0.132331 0)
(0.871765 -0.128947 0)
(0.868755 -0.12546 0)
(0.865949 -0.121892 0)
(0.863375 -0.118268 0)
(0.861082 -0.114614 0)
(0.85915 -0.110955 0)
(0.857703 -0.107318 0)
(0.856902 -0.103717 0)
(0.856916 -0.100151 0)
(0.857835 -0.0965766 0)
(0.859546 -0.0928979 0)
(0.861607 -0.088968 0)
(0.863218 -0.0846289 0)
(0.863416 -0.0797935 0)
(0.8744 -0.167312 0)
(0.869764 -0.163426 0)
(0.865306 -0.159332 0)
(0.861049 -0.155055 0)
(0.857028 -0.1506 0)
(0.853252 -0.145965 0)
(0.849729 -0.141158 0)
(0.846455 -0.136184 0)
(0.843409 -0.131049 0)
(0.840547 -0.125755 0)
(0.837784 -0.120304 0)
(0.834977 -0.114692 0)
(0.831909 -0.108918 0)
(0.828298 -0.102992 0)
(0.82385 -0.09696 0)
(0.818412 -0.0909351 0)
(0.812198 -0.0851132 0)
(0.806013 -0.0797483 0)
(0.801238 -0.0750596 0)
(0.857796 -0.19035 0)
(0.851892 -0.186018 0)
(0.846255 -0.181309 0)
(0.840938 -0.176286 0)
(0.835928 -0.170976 0)
(0.831253 -0.165441 0)
(0.826927 -0.159723 0)
(0.82296 -0.153874 0)
(0.819366 -0.147947 0)
(0.81616 -0.141996 0)
(0.813377 -0.136082 0)
(0.811093 -0.130271 0)
(0.809457 -0.124635 0)
(0.808716 -0.119242 0)
(0.809204 -0.114139 0)
(0.811231 -0.109309 0)
(0.814819 -0.104609 0)
(0.819322 -0.0997442 0)
(0.823217 -0.0943262 0)
(0.838934 -0.218101 0)
(0.831568 -0.212268 0)
(0.824628 -0.206053 0)
(0.818065 -0.199417 0)
(0.811985 -0.192434 0)
(0.806417 -0.185115 0)
(0.801386 -0.177506 0)
(0.796918 -0.169652 0)
(0.793011 -0.161596 0)
(0.789653 -0.153383 0)
(0.786802 -0.14505 0)
(0.784374 -0.136627 0)
(0.782208 -0.128128 0)
(0.780026 -0.119555 0)
(0.777379 -0.110906 0)
(0.773673 -0.102215 0)
(0.768358 -0.0936377 0)
(0.761449 -0.085511 0)
(0.754244 -0.0783876 0)
(0.818385 -0.247511 0)
(0.809016 -0.240739 0)
(0.80006 -0.233069 0)
(0.791768 -0.224791 0)
(0.784146 -0.215907 0)
(0.777242 -0.206542 0)
(0.771126 -0.1968 0)
(0.765806 -0.18678 0)
(0.761314 -0.176608 0)
(0.757646 -0.166403 0)
(0.754804 -0.156301 0)
(0.752788 -0.146443 0)
(0.75164 -0.136979 0)
(0.751484 -0.128076 0)
(0.752616 -0.119907 0)
(0.755562 -0.112638 0)
(0.761013 -0.106333 0)
(0.76932 -0.100853 0)
(0.779547 -0.0955731 0)
(0.794965 -0.283223 0)
(0.78276 -0.274158 0)
(0.771418 -0.264334 0)
(0.760874 -0.253543 0)
(0.751263 -0.241947 0)
(0.742757 -0.229665 0)
(0.73538 -0.216792 0)
(0.729238 -0.2035 0)
(0.724344 -0.189918 0)
(0.720724 -0.176203 0)
(0.718351 -0.162491 0)
(0.717176 -0.14891 0)
(0.717086 -0.135562 0)
(0.717884 -0.12252 0)
(0.719201 -0.109814 0)
(0.720369 -0.0974264 0)
(0.720273 -0.0854122 0)
(0.717572 -0.073898 0)
(0.711414 -0.0635283 0)
(0.769689 -0.322567 0)
(0.753939 -0.312117 0)
(0.739107 -0.299824 0)
(0.725392 -0.286087 0)
(0.713157 -0.271151 0)
(0.702379 -0.2551 0)
(0.693306 -0.238252 0)
(0.685955 -0.220785 0)
(0.680422 -0.202972 0)
(0.6767 -0.185065 0)
(0.674788 -0.167338 0)
(0.674636 -0.150079 0)
(0.676196 -0.133595 0)
(0.679435 -0.11822 0)
(0.684419 -0.104306 0)
(0.691436 -0.092278 0)
(0.701286 -0.0824136 0)
(0.715052 -0.0751606 0)
(0.734341 -0.0702563 0)
(0.741281 -0.370665 0)
(0.720848 -0.357181 0)
(0.701392 -0.341441 0)
(0.683841 -0.323943 0)
(0.667996 -0.304468 0)
(0.654433 -0.283623 0)
(0.643145 -0.261547 0)
(0.63437 -0.238647 0)
(0.628123 -0.215238 0)
(0.624486 -0.191666 0)
(0.62343 -0.168266 0)
(0.62493 -0.145365 0)
(0.62889 -0.123263 0)
(0.635144 -0.102216 0)
(0.643381 -0.0824324 0)
(0.653044 -0.0638739 0)
(0.662805 -0.0467864 0)
(0.671246 -0.0308908 0)
(0.673586 -0.0164635 0)
(0.712421 -0.425378 0)
(0.684649 -0.408963 0)
(0.659622 -0.389944 0)
(0.6364 -0.367315 0)
(0.616225 -0.342493 0)
(0.598959 -0.315477 0)
(0.585046 -0.286922 0)
(0.574458 -0.257275 0)
(0.567384 -0.226976 0)
(0.563763 -0.196484 0)
(0.563643 -0.166239 0)
(0.566962 -0.136701 0)
(0.573658 -0.10837 0)
(0.583625 -0.0818277 0)
(0.596779 -0.0576755 0)
(0.613024 -0.0370115 0)
(0.633422 -0.020145 0)
(0.657542 -0.00878161 0)
(0.69116 -0.00406164 0)
(0.678391 -0.490381 0)
(0.643926 -0.471472 0)
(0.610645 -0.446176 0)
(0.581296 -0.417669 0)
(0.555638 -0.385577 0)
(0.53439 -0.350911 0)
(0.517404 -0.314467 0)
(0.505011 -0.276711 0)
(0.496957 -0.238286 0)
(0.493405 -0.199637 0)
(0.49425 -0.161238 0)
(0.499551 -0.123567 0)
(0.509315 -0.0871375 0)
(0.52355 -0.0524767 0)
(0.542108 -0.0203747 0)