/*--------------------------------*- C++ -*----------------------------------*\
  =========                 |
  \\      /  F ield         | OpenFOAM: The Open Source CFD Toolbox
   \\    /   O peration     | Website:  https://openfoam.org
    \\  /    A nd           | Version:  10
     \\/     M anipulation  |
\*---------------------------------------------------------------------------*/
FoamFile
{
    format      ascii;
    class       volVectorField;
    location    "0";
    object      U;
}
// * * * * * * * * * * * * * * * * * * * * * * * * * * * * * * * * * * * * * //

dimensions      [0 1 -1 0 0 0 0];

internalField   nonuniform List<vector> 
18483
(
(0.999993 -0.000246528 0)
(0.999993 -0.000868965 0)
(0.999994 -0.00135535 0)
(0.999996 -0.00185432 0)
(0.999998 -0.00229617 0)
(1 -0.00269223 0)
(1 -0.00302874 0)
(1.00001 -0.00329955 0)
(1.00001 -0.00350124 0)
(1.00001 -0.00363432 0)
(1.00001 -0.00371053 0)
(1.00001 -0.00374955 0)
(1.00001 -0.00377949 0)
(0.999999 -0.00386092 0)
(0.999986 -0.0040564 0)
(0.999947 -0.00438959 0)
(0.999792 -0.00479749 0)
(0.999183 -0.00515045 0)
(0.997367 -0.00533468 0)
(0.993748 -0.00522381 0)
(0.989413 -0.00487412 0)
(0.98709 -0.00447638 0)
(0.988124 -0.00409531 0)
(0.991118 -0.00372683 0)
(0.994159 -0.00338206 0)
(0.996412 -0.00308052 0)
(0.997857 -0.00282767 0)
(0.998719 -0.00262045 0)
(0.999211 -0.00245175 0)
(1.00076 -0.000753609 0)
(1.00076 -0.00263812 0)
(1.00079 -0.00410405 0)
(1.00081 -0.00560292 0)
(1.00081 -0.0069115 0)
(1.00079 -0.00806961 0)
(1.00073 -0.00903214 0)
(1.00064 -0.00978014 0)
(1.00052 -0.0103013 0)
(1.00037 -0.0105929 0)
(1.0002 -0.0106678 0)
(1.00007 -0.0105762 0)
(0.999994 -0.0103383 0)
(1.00002 -0.00986118 0)
(1.00016 -0.00903904 0)
(1.00034 -0.00782849 0)
(1.00049 -0.00634645 0)
(1.00073 -0.0048492 0)
(1.00162 -0.00361781 0)
(1.00395 -0.00301863 0)
(1.00733 -0.00309575 0)
(1.00933 -0.00344151 0)
(1.00812 -0.00373341 0)
(1.00485 -0.00389883 0)
(1.00164 -0.00394577 0)
(0.999384 -0.00389529 0)
(0.998029 -0.00377971 0)
(0.997271 -0.00362681 0)
(0.996859 -0.00345877 0)
(1.00223 -0.00122438 0)
(1.00225 -0.00426135 0)
(1.00234 -0.00662578 0)
(1.00237 -0.0090532 0)
(1.00235 -0.0111651 0)
(1.00225 -0.0130362 0)
(1.00205 -0.0145874 0)
(1.00173 -0.0157886 0)
(1.00131 -0.016616 0)
(1.00078 -0.01707 0)
(1.00019 -0.0171512 0)
(0.999558 -0.0168839 0)
(0.99896 -0.0163154 0)
(0.998374 -0.0154881 0)
(0.997713 -0.014627 0)
(0.99691 -0.0140288 0)
(0.996006 -0.0137007 0)
(0.995026 -0.0134506 0)
(0.993763 -0.0130665 0)
(0.991833 -0.0123401 0)
(0.989277 -0.011106 0)
(0.987311 -0.00963463 0)
(0.987294 -0.00834336 0)
(0.988843 -0.00725513 0)
(0.990585 -0.00632157 0)
(0.991828 -0.00553287 0)
(0.992566 -0.00486753 0)
(0.992975 -0.0043081 0)
(0.993195 -0.00383861 0)
(1.00405 -0.00164204 0)
(1.0041 -0.00569114 0)
(1.00424 -0.0088594 0)
(1.00429 -0.0121352 0)
(1.00427 -0.0149974 0)
(1.00408 -0.017562 0)
(1.0037 -0.0197131 0)
(1.00311 -0.0214126 0)
(1.00231 -0.0226189 0)
(1.00133 -0.0233258 0)
(1.00022 -0.0235381 0)
(0.999024 -0.0232863 0)
(0.997786 -0.0226836 0)
(0.996543 -0.021865 0)
(0.995333 -0.0208649 0)
(0.994261 -0.0194579 0)
(0.99339 -0.0174501 0)
(0.992807 -0.015068 0)
(0.9929 -0.0126661 0)
(0.994307 -0.0105555 0)
(0.996937 -0.00900394 0)
(0.999008 -0.00804443 0)
(0.998612 -0.00730809 0)
(0.996074 -0.00661468 0)
(0.993181 -0.00600578 0)
(0.990981 -0.00543442 0)
(0.989549 -0.00488206 0)
(0.988654 -0.00434938 0)
(0.988086 -0.00384204 0)
(1.00599 -0.00200756 0)
(1.00609 -0.00693894 0)
(1.00629 -0.0108265 0)
(1.00639 -0.0148815 0)
(1.00638 -0.0184595 0)
(1.00612 -0.0217192 0)
(1.00558 -0.024505 0)
(1.00472 -0.0267676 0)
(1.00356 -0.0284391 0)
(1.00212 -0.0294941 0)
(1.00047 -0.0299421 0)
(0.998666 -0.0298246 0)
(0.996791 -0.0292199 0)
(0.994935 -0.0281856 0)
(0.993157 -0.0267741 0)
(0.991413 -0.0252226 0)
(0.989564 -0.0239064 0)
(0.987573 -0.0229288 0)
(0.985438 -0.0220032 0)
(0.983018 -0.020772 0)
(0.980309 -0.0190372 0)
(0.978045 -0.0167975 0)
(0.9774 -0.0144841 0)
(0.978362 -0.0124722 0)
(0.979683 -0.0107012 0)
(0.98053 -0.009154 0)
(0.98087 -0.0078314 0)
(0.980903 -0.00670535 0)
(0.980789 -0.00575154 0)
(1.00803 -0.00232899 0)
(1.00818 -0.00803569 0)
(1.00847 -0.0125746 0)
(1.00864 -0.0173563 0)
(1.00866 -0.0216317 0)
(1.00836 -0.0256019 0)
(1.00769 -0.0290728 0)
(1.00658 -0.0319846 0)
(1.00503 -0.0342436 0)
(1.00308 -0.0358067 0)
(1.00079 -0.0366725 0)
(0.998265 -0.0368751 0)
(0.995613 -0.036475 0)
(0.992939 -0.0355598 0)
(0.990294 -0.034263 0)
(0.987726 -0.0326931 0)
(0.985319 -0.0307244 0)
(0.983136 -0.0281346 0)
(0.981363 -0.0250795 0)
(0.980578 -0.0220263 0)
(0.981205 -0.0193971 0)
(0.982359 -0.0174717 0)
(0.982228 -0.0160247 0)
(0.980275 -0.0146501 0)
(0.977703 -0.01337 0)
(0.97561 -0.012218 0)
(0.974176 -0.0111518 0)
(0.973216 -0.010167 0)
(0.972555 -0.00926405 0)
(1.01015 -0.00261174 0)
(1.01037 -0.00900131 0)
(1.01076 -0.0141331 0)
(1.01104 -0.0195965 0)
(1.01114 -0.0245553 0)
(1.01085 -0.0292547 0)
(1.01009 -0.0334673 0)
(1.00877 -0.0371251 0)
(1.00687 -0.0401073 0)
(1.00444 -0.042346 0)
(1.00155 -0.0438053 0)
(0.998353 -0.0444865 0)
(0.994991 -0.0444275 0)
(0.991599 -0.0436876 0)
(0.98827 -0.042312 0)
(0.985037 -0.0403976 0)
(0.981804 -0.0382762 0)
(0.978379 -0.0363654 0)
(0.97477 -0.0347632 0)
(0.971176 -0.0331926 0)
(0.967664 -0.0312623 0)
(0.964475 -0.0287149 0)
(0.962516 -0.0258109 0)
(0.962281 -0.023094 0)
(0.962897 -0.0206538 0)
(0.96333 -0.0184274 0)
(0.963356 -0.0164562 0)
(0.963135 -0.0147397 0)
(0.962816 -0.0132592 0)
(1.01229 -0.00285648 0)
(1.01261 -0.00983909 0)
(1.01313 -0.0155046 0)
(1.01356 -0.0216001 0)
(1.01378 -0.0272206 0)
(1.01357 -0.0326562 0)
(1.0128 -0.0376505 0)
(1.01135 -0.0421274 0)
(1.0092 -0.0459325 0)
(1.00637 -0.0489651 0)
(1.00296 -0.0511472 0)
(0.99911 -0.0524432 0)
(0.994968 -0.0528691 0)
(0.990677 -0.0524891 0)
(0.986321 -0.0514164 0)
(0.981932 -0.0498348 0)
(0.97756 -0.0478738 0)
(0.973356 -0.0453657 0)
(0.969599 -0.0421449 0)
(0.966763 -0.0385244 0)
(0.965289 -0.0350868 0)
(0.96486 -0.0323091 0)
(0.964105 -0.0301646 0)
(0.96196 -0.0281684 0)
(0.958996 -0.0262136 0)
(0.956388 -0.0244393 0)
(0.954504 -0.0228156 0)
(0.95317 -0.0213206 0)
(0.952191 -0.0199555 0)
(1.01442 -0.00306227 0)
(1.01484 -0.0105459 0)
(1.01551 -0.0166802 0)
(1.01612 -0.0233488 0)
(1.01653 -0.0295951 0)
(1.01645 -0.0357538 0)
(1.01575 -0.0415443 0)
(1.01425 -0.0468844 0)
(1.01192 -0.0515893 0)
(1.00876 -0.055531 0)
(1.00484 -0.0586018 0)
(1.00027 -0.060739 0)
(0.995241 -0.0619351 0)
(0.989919 -0.0622323 0)
(0.984484 -0.0616784 0)
(0.979094 -0.0602723 0)
(0.973859 -0.0580991 0)
(0.968754 -0.0555866 0)
(0.963689 -0.0533039 0)
(0.958736 -0.0513458 0)
(0.953927 -0.0492571 0)
(0.949278 -0.0465492 0)
(0.945413 -0.0432148 0)
(0.943264 -0.0398479 0)
(0.942617 -0.0367859 0)
(0.942317 -0.0339175 0)
(0.941789 -0.0312821 0)
(0.941106 -0.0289332 0)
(0.940403 -0.0268677 0)
(1.01648 -0.00322935 0)
(1.01701 -0.0111217 0)
(1.01785 -0.0176559 0)
(1.01867 -0.0248309 0)
(1.0193 -0.0316542 0)
(1.01943 -0.0385038 0)
(1.01885 -0.0450828 0)
(1.0174 -0.0513078 0)
(1.01497 -0.05697 0)
(1.01155 -0.0619183 0)
(1.00721 -0.0660146 0)
(1.00207 -0.0691577 0)
(0.996322 -0.0712837 0)
(0.990178 -0.0723613 0)
(0.98383 -0.072391 0)
(0.977395 -0.0714452 0)
(0.97092 -0.0697333 0)
(0.964564 -0.0674875 0)
(0.958682 -0.0646224 0)
(0.953686 -0.0609737 0)
(0.94988 -0.0569299 0)
(0.947304 -0.0532244 0)
(0.945199 -0.0502236 0)
(0.942299 -0.0475266 0)
(0.938412 -0.0447979 0)
(0.934668 -0.0422516 0)
(0.931806 -0.0399482 0)
(0.9297 -0.0378277 0)
(0.928092 -0.0358909 0)
(1.01843 -0.00335994 0)
(1.01908 -0.0115732 0)
(1.0201 -0.0184381 0)
(1.02116 -0.0260491 0)
(1.02205 -0.033391 0)
(1.02242 -0.0408846 0)
(1.02205 -0.0482237 0)
(1.02072 -0.0553261 0)
(1.01831 -0.0619616 0)
(1.01478 -0.0679537 0)
(1.01019 -0.073131 0)
(1.00465 -0.0773561 0)
(0.998324 -0.0805274 0)
(0.991384 -0.0825923 0)
(0.983982 -0.0835624 0)
(0.976288 -0.0834977 0)
(0.968554 -0.0824257 0)
(0.961093 -0.0804711 0)
(0.954031 -0.078051 0)
(0.947217 -0.0756868 0)
(0.940493 -0.0734121 0)
(0.933785 -0.0706292 0)
(0.927452 -0.0669546 0)
(0.922667 -0.06291 0)
(0.920086 -0.0591463 0)
(0.918678 -0.0556031 0)
(0.917299 -0.052227 0)
(0.915838 -0.0491523 0)
(0.914461 -0.0464082 0)
(1.02026 -0.00345798 0)
(1.02102 -0.0119129 0)
(1.02224 -0.0190431 0)
(1.02356 -0.0270204 0)
(1.02473 -0.0348177 0)
(1.0254 -0.0428973 0)
(1.0253 -0.0509495 0)
(1.02418 -0.058894 0)
(1.02189 -0.0664828 0)
(1.01837 -0.0735193 0)
(1.01362 -0.0798085 0)
(1.00774 -0.0851972 0)
(1.00087 -0.0895702 0)
(0.993151 -0.0928516 0)
(0.984776 -0.0949864 0)
(0.976007 -0.0959325 0)
(0.967144 -0.0956916 0)
(0.95843 -0.0944282 0)
(0.950075 -0.0922999 0)
(0.942351 -0.0891759 0)
(0.935653 -0.0850223 0)
(0.93031 -0.0805171 0)
(0.926128 -0.0765678 0)
(0.921949 -0.0731271 0)
(0.916734 -0.0695917 0)
(0.911221 -0.0661028 0)
(0.906747 -0.0629451 0)
(0.903419 -0.0600269 0)
(0.900842 -0.0573324 0)
(1.02194 -0.00352849 0)
(1.02283 -0.012157 0)
(1.02424 -0.0194941 0)
(1.02583 -0.0277726 0)
(1.02731 -0.0359611 0)
(1.02832 -0.0445629 0)
(1.02854 -0.0532694 0)
(1.0277 -0.062005 0)
(1.0256 -0.0705104 0)
(1.02215 -0.078577 0)
(1.01734 -0.0859915 0)
(1.01124 -0.0925867 0)
(1.004 -0.0982258 0)
(0.995757 -0.102793 0)
(0.986704 -0.106186 0)
(0.977044 -0.10836 0)
(0.967037 -0.109322 0)
(0.957009 -0.109108 0)
(0.947226 -0.107844 0)
(0.937701 -0.1059 0)
(0.928298 -0.103694 0)
(0.918855 -0.10108 0)
(0.909475 -0.09739 0)
(0.901282 -0.0926865 0)
(0.895847 -0.0879747 0)
(0.892792 -0.083582 0)
(0.890253 -0.0792619 0)
(0.887623 -0.0752078 0)
(0.885192 -0.0715577 0)
(1.02349 -0.00357687 0)
(1.0245 -0.0123234 0)
(1.0261 -0.0198172 0)
(1.02796 -0.0283384 0)
(1.02977 -0.036857 0)
(1.03113 -0.0459164 0)
(1.03171 -0.0552137 0)
(1.03119 -0.0646811 0)
(1.02936 -0.0740526 0)
(1.02607 -0.0831084 0)
(1.02132 -0.0916134 0)
(1.01519 -0.0993812 0)
(1.0078 -0.106263 0)
(0.99926 -0.112142 0)
(0.989682 -0.11693 0)
(0.979223 -0.120572 0)
(0.968185 -0.122992 0)
(0.95693 -0.124094 0)
(0.945684 -0.123834 0)
(0.934649 -0.122114 0)
(0.924282 -0.118792 0)
(0.915208 -0.114194 0)
(0.907855 -0.109415 0)
(0.901568 -0.105239 0)
(0.894552 -0.101081 0)
(0.886512 -0.0965952 0)
(0.879428 -0.0923605 0)
(0.874169 -0.0884353 0)
(0.870126 -0.0847116 0)
(1.0249 -0.00360817 0)
(1.02602 -0.0124288 0)
(1.02783 -0.0200379 0)
(1.02995 -0.0287513 0)
(1.03209 -0.0375437 0)
(1.03382 -0.0469988 0)
(1.03478 -0.056822 0)
(1.03463 -0.066955 0)
(1.03311 -0.0771266 0)
(1.03008 -0.0871047 0)
(1.02551 -0.0966337 0)
(1.01945 -0.105515 0)
(1.01202 -0.11361 0)
(1.00328 -0.120824 0)
(0.993321 -0.127078 0)
(0.982306 -0.132288 0)
(0.970509 -0.136326 0)
(0.958195 -0.139047 0)
(0.945525 -0.140341 0)
(0.932631 -0.140303 0)
(0.919651 -0.139373 0)
(0.906595 -0.137799 0)
(0.893342 -0.134964 0)
(0.880609 -0.130208 0)
(0.870699 -0.124448 0)
(0.86477 -0.1189 0)
(0.86054 -0.113363 0)
(0.856171 -0.107875 0)
(0.852066 -0.10286 0)
(1.02619 -0.00362674 0)
(1.02742 -0.0124878 0)
(1.02941 -0.0201788 0)
(1.03179 -0.0290417 0)
(1.03426 -0.038058 0)
(1.03637 -0.0478513 0)
(1.03772 -0.0581362 0)
(1.03796 -0.0688652 0)
(1.0368 -0.0797643 0)
(1.03408 -0.0905919 0)
(1.02973 -0.101077 0)
(1.0238 -0.111013 0)
(1.0164 -0.120266 0)
(1.00762 -0.128761 0)
(0.997547 -0.136431 0)
(0.986307 -0.143209 0)
(0.974057 -0.148986 0)
(0.96095 -0.153574 0)
(0.947098 -0.156715 0)
(0.932692 -0.158097 0)
(0.918238 -0.157306 0)
(0.904512 -0.154137 0)
(0.892456 -0.149421 0)
(0.882529 -0.144795 0)
(0.872896 -0.140449 0)
(0.861432 -0.135296 0)
(0.850064 -0.129796 0)
(0.841436 -0.124621 0)
(0.834986 -0.119526 0)
(1.02735 -0.00363609 0)
(1.02868 -0.0125126 0)
(1.03086 -0.0202593 0)
(1.03349 -0.0292365 0)
(1.03628 -0.0384327 0)
(1.03876 -0.048512 0)
(1.04051 -0.0591979 0)
(1.04115 -0.0704549 0)
(1.04038 -0.0820112 0)
(1.03798 -0.0936178 0)
(1.03389 -0.104987 0)
(1.02815 -0.115898 0)
(1.0209 -0.126211 0)
(1.01227 -0.135867 0)
(1.00233 -0.144849 0)
(0.991114 -0.153157 0)
(0.978697 -0.160724 0)
(0.965126 -0.167343 0)
(0.950387 -0.172697 0)
(0.93452 -0.176504 0)
(0.917732 -0.178833 0)
(0.900234 -0.180101 0)
(0.882095 -0.179999 0)
(0.86354 -0.177039 0)
(0.846782 -0.171058 0)
(0.835309 -0.164236 0)
(0.828064 -0.157381 0)
(0.821035 -0.150031 0)
(0.814058 -0.142964 0)
(1.02841 -0.00363897 0)
(1.02984 -0.0125128 0)
(1.03219 -0.0202949 0)
(1.03505 -0.0293577 0)
(1.03815 -0.0386964 0)
(1.04099 -0.0490153 0)
(1.04313 -0.0600466 0)
(1.04419 -0.0717687 0)
(1.04381 -0.0839152 0)
(1.04176 -0.0962293 0)
(1.03796 -0.108403 0)
(1.03249 -0.120192 0)
(1.02549 -0.131448 0)
(1.0171 -0.14214 0)
(1.0074 -0.152314 0)
(0.996412 -0.162053 0)
(0.984144 -0.171358 0)
(0.970522 -0.180072 0)
(0.955367 -0.187874 0)
(0.938601 -0.194271 0)
(0.920518 -0.198507 0)
(0.901869 -0.199599 0)
(0.883856 -0.197275 0)
(0.868056 -0.193289 0)
(0.854131 -0.18969 0)
(0.838323 -0.185246 0)
(0.820349 -0.178889 0)
(0.80541 -0.172279 0)
(0.794611 -0.165564 0)
(1.02937 -0.00363737 0)
(1.03089 -0.0124957 0)
(1.0334 -0.0202979 0)
(1.03649 -0.0294234 0)
(1.03988 -0.0388729 0)
(1.04306 -0.0493911 0)
(1.04559 -0.0607177 0)
(1.04705 -0.0728466 0)
(1.04706 -0.0855189 0)
(1.04538 -0.0984686 0)
(1.04192 -0.111366 0)
(1.03673 -0.123942 0)
(1.03 -0.136038 0)
(1.02189 -0.147642 0)
(1.01252 -0.158858 0)
(1.00195 -0.169851 0)
(0.990156 -0.180738 0)
(0.976931 -0.191471 0)
(0.961901 -0.201788 0)
(0.944737 -0.211202 0)
(0.925314 -0.219206 0)
(0.903721 -0.225857 0)
(0.880254 -0.231377 0)
(0.855044 -0.234094 0)
(0.829103 -0.231184 0)
(0.807585 -0.224012 0)
(0.793929 -0.216149 0)
(0.782726 -0.2072 0)
(0.77073 -0.197406 0)
(1.03024 -0.00363279 0)
(1.03184 -0.012467 0)
(1.03451 -0.0202779 0)
(1.0378 -0.0294473 0)
(1.04147 -0.0389818 0)
(1.04498 -0.0496647 0)
(1.04788 -0.0612418 0)
(1.04973 -0.0737244 0)
(1.05014 -0.0868619 0)
(1.04884 -0.10038 0)
(1.0457 -0.113928 0)
(1.0408 -0.127212 0)
(1.03432 -0.140053 0)
(1.02651 -0.15244 0)
(1.01755 -0.164519 0)
(1.00757 -0.17655 0)
(0.996514 -0.1888 0)
(0.984066 -0.201385 0)
(0.96968 -0.214186 0)
(0.952797 -0.226786 0)
(0.933105 -0.238324 0)
(0.910874 -0.247292 0)
(0.887176 -0.251792 0)
(0.863824 -0.251699 0)
(0.842875 -0.250478 0)
(0.821665 -0.249581 0)
(0.795175 -0.245099 0)
(0.768824 -0.237523 0)
(0.749523 -0.229404 0)
(1.03103 -0.00362627 0)
(1.0327 -0.0124309 0)
(1.03551 -0.0202421 0)
(1.03899 -0.0294408 0)
(1.04292 -0.0390392 0)
(1.04674 -0.0498574 0)
(1.04999 -0.0616451 0)
(1.05223 -0.0744336 0)
(1.05303 -0.0879811 0)
(1.05209 -0.102007 0)
(1.04927 -0.116142 0)
(1.04464 -0.130062 0)
(1.03843 -0.143554 0)
(1.03094 -0.156595 0)
(1.02244 -0.169363 0)
(1.01313 -0.182215 0)
(1.00296 -0.195573 0)
(0.991603 -0.209748 0)
(0.978369 -0.2248 0)
(0.962489 -0.240453 0)
(0.943227 -0.256 0)
(0.919985 -0.270746 0)
(0.892669 -0.285012 0)
(0.861451 -0.298447 0)
(0.826003 -0.306102 0)
(0.789706 -0.30348 0)
(0.762282 -0.295707 0)
(0.743649 -0.286794 0)
(0.723911 -0.274612 0)
(1.03174 -0.0036186 0)
(1.03348 -0.0123903 0)
(1.03641 -0.0201961 0)
(1.04007 -0.0294122 0)
(1.04425 -0.0390579 0)
(1.04834 -0.0499865 0)
(1.05194 -0.0619502 0)
(1.05454 -0.0750024 0)
(1.05572 -0.0889106 0)
(1.05512 -0.10339 0)
(1.05262 -0.118052 0)
(1.04826 -0.13254 0)
(1.04232 -0.146599 0)
(1.03515 -0.160183 0)
(1.0271 -0.17349 0)
(1.01845 -0.186953 0)
(1.00927 -0.201143 0)
(0.999236 -0.216578 0)
(0.987576 -0.233546 0)
(0.973301 -0.252029 0)
(0.955406 -0.271569 0)
(0.933122 -0.290907 0)
(0.906705 -0.307484 0)
(0.877291 -0.317928 0)
(0.847059 -0.322741 0)
(0.818024 -0.328498 0)
(0.783281 -0.333006 0)
(0.739935 -0.328345 0)
(0.703127 -0.31957 0)
(1.03237 -0.00361033 0)
(1.03417 -0.0123476 0)
(1.03723 -0.0201441 0)
(1.04104 -0.0293687 0)
(1.04545 -0.0390482 0)
(1.0498 -0.0500661 0)
(1.05371 -0.062176 0)
(1.05666 -0.0754553 0)
(1.05819 -0.0896797 0)
(1.05794 -0.104562 0)
(1.05575 -0.119697 0)
(1.05166 -0.134691 0)
(1.04597 -0.149245 0)
(1.03908 -0.163281 0)
(1.03143 -0.176998 0)
(1.02343 -0.190884 0)
(1.01527 -0.20563 0)
(1.0067 -0.22197 0)
(0.996916 -0.240452 0)
(0.984774 -0.261304 0)
(0.969111 -0.284344 0)
(0.948629 -0.308801 0)
(0.921932 -0.334099 0)
(0.888328 -0.361494 0)
(0.84693 -0.389412 0)
(0.795974 -0.405465 0)
(0.744446 -0.403538 0)
(0.707994 -0.396591 0)
(0.67778 -0.385697 0)
(1.03294 -0.00360187 0)
(1.0348 -0.0123045 0)
(1.03796 -0.0200891 0)
(1.0419 -0.0293153 0)
(1.04652 -0.0390183 0)
(1.05112 -0.050108 0)
(1.05533 -0.0623387 0)
(1.0586 -0.0758131 0)
(1.06046 -0.0903136 0)
(1.06054 -0.105553 0)
(1.05864 -0.12111 0)
(1.05482 -0.136556 0)
(1.04935 -0.151548 0)
(1.04269 -0.165962 0)
(1.0354 -0.17998 0)
(1.02802 -0.194121 0)
(1.02085 -0.209181 0)
(1.01378 -0.226082 0)
(1.00605 -0.245641 0)
(0.996421 -0.268347 0)
(0.983557 -0.294385 0)
(0.966109 -0.323615 0)
(0.942675 -0.354563 0)
(0.912834 -0.383119 0)
(0.877065 -0.403522 0)
(0.837738 -0.418522 0)
(0.794873 -0.440084 0)
(0.734902 -0.453822 0)
(0.665063 -0.447422 0)
(1.03344 -0.00359348 0)
(1.03535 -0.0122622 0)
(1.0386 -0.0200335 0)
(1.04268 -0.0292563 0)
(1.04749 -0.0389747 0)
(1.0523 -0.0501216 0)
(1.05678 -0.0624519 0)
(1.06035 -0.0760932 0)
(1.06254 -0.090834 0)
(1.06293 -0.106389 0)
(1.06131 -0.122323 0)
(1.05771 -0.138176 0)
(1.05244 -0.153554 0)
(1.04599 -0.168284 0)
(1.03902 -0.182514 0)
(1.03219 -0.196777 0)
(1.02597 -0.211949 0)
(1.02034 -0.229104 0)
(1.01469 -0.249304 0)
(1.00782 -0.273331 0)
(0.998222 -0.301615 0)
(0.984698 -0.334477 0)
(0.96537 -0.371615 0)
(0.936583 -0.412879 0)
(0.896614 -0.462456 0)
(0.842911 -0.517923 0)
(0.767155 -0.549721 0)
(0.687944 -0.549187 0)
(0.63274 -0.544379 0)
(1.03389 -0.00358535 0)
(1.03584 -0.0122215 0)
(1.03918 -0.0199788 0)
(1.04338 -0.0291947 0)
(1.04836 -0.0389224 0)
(1.05336 -0.0501146 0)
(1.05809 -0.0625266 0)
(1.06194 -0.0763106 0)
(1.06442 -0.0912598 0)
(1.06509 -0.107093 0)
(1.06374 -0.123364 0)
(1.06036 -0.139581 0)
(1.05526 -0.155302 0)
(1.049 -0.170297 0)
(1.04229 -0.184671 0)
(1.03594 -0.198955 0)
(1.03056 -0.214082 0)
(1.02629 -0.231242 0)
(1.02265 -0.251687 0)
(1.01859 -0.276497 0)
(1.01258 -0.306351 0)
(1.00325 -0.341963 0)
(0.989424 -0.384368 0)
(0.968206 -0.432442 0)
(0.936837 -0.47946 0)
(0.894828 -0.515813 0)
(0.844693 -0.553765 0)
(0.774744 -0.614136 0)
(0.659723 -0.639453 0)
(1.03428 -0.0035776 0)
(1.03628 -0.0121832 0)
(1.03969 -0.0199261 0)
(1.04399 -0.0291329 0)
(1.04912 -0.0388653 0)
(1.05431 -0.0500929 0)
(1.05927 -0.0625721 0)
(1.06336 -0.0764777 0)
(1.06611 -0.0916074 0)
(1.06706 -0.107686 0)
(1.06594 -0.124257 0)
(1.06276 -0.1408 0)
(1.05782 -0.156825 0)
(1.05171 -0.172045 0)
(1.04522 -0.186515 0)
(1.03926 -0.200745 0)
(1.03462 -0.215704 0)
(1.03161 -0.232678 0)
(1.02983 -0.253048 0)
(1.02846 -0.278131 0)
(1.02616 -0.308948 0)
(1.02137 -0.34628 0)
(1.01352 -0.391612 0)
(1.00035 -0.446359 0)
(0.972804 -0.510795 0)
(0.928288 -0.596622 0)
(0.867229 -0.711596 0)
(0.747895 -0.785524 0)
(0.586916 -0.783516 0)
(1.03463 -0.00357031 0)
(1.03666 -0.0121474 0)
(1.04014 -0.0198763 0)
(1.04454 -0.0290725 0)
(1.04981 -0.0388063 0)
(1.05515 -0.0500616 0)
(1.06032 -0.0625957 0)
(1.06464 -0.0766047 0)
(1.06763 -0.0918906 0)
(1.06882 -0.108185 0)
(1.06793 -0.125022 0)
(1.06494 -0.141855 0)
(1.06014 -0.158151 0)
(1.05414 -0.173565 0)
(1.04781 -0.188096 0)
(1.04217 -0.202222 0)
(1.03817 -0.216927 0)
(1.03628 -0.233576 0)
(1.03622 -0.253647 0)
(1.03727 -0.278581 0)
(1.03855 -0.30974 0)
(1.03856 -0.348084 0)
(1.03625 -0.394953 0)
(1.03168 -0.454413 0)
(1.02048 -0.528198 0)
(0.995297 -0.602749 0)
(0.951433 -0.663405 0)
(0.891941 -0.76645 0)
(0.746101 -0.932884 0)
(1.03494 -0.00356352 0)
(1.037 -0.0121145 0)
(1.04054 -0.0198298 0)
(1.04502 -0.029015 0)
(1.05041 -0.0387476 0)
(1.0559 -0.0500242 0)
(1.06125 -0.0626034 0)
(1.06577 -0.0767 0)
(1.06899 -0.0921205 0)
(1.07041 -0.108604 0)
(1.06972 -0.125676 0)
(1.06689 -0.142769 0)
(1.06221 -0.159306 0)
(1.0563 -0.174887 0)
(1.0501 -0.189455 0)
(1.04472 -0.203446 0)
(1.04125 -0.217843 0)
(1.04033 -0.234066 0)
(1.04183 -0.253682 0)
(1.04505 -0.278177 0)
(1.04948 -0.309106 0)
(1.05423 -0.347837 0)
(1.05762 -0.395254 0)
(1.06116 -0.455217 0)
(1.06468 -0.533355 0)
(1.04948 -0.625408 0)
(1.01136 -0.76029 0)
(0.969825 -1.02589 0)
(0.722112 -1.19268 0)
(0.999476 -0.00231238 0)
(0.999607 -0.00218488 0)
(0.999632 -0.00205673 0)
(0.999552 -0.00192675 0)
(0.999358 -0.00179362 0)
(0.999036 -0.00165583 0)
(0.998565 -0.00151201 0)
(0.997921 -0.00136124 0)
(0.997082 -0.00120331 0)
(0.996036 -0.00103898 0)
(0.994784 -0.000870345 0)
(0.993346 -0.00070094 0)
(0.991769 -0.00053575 0)
(0.990126 -0.000380893 0)
(0.988517 -0.000243006 0)
(0.987058 -0.000128366 0)
(0.985869 -4.18621e-05 0)
(0.985063 1.40171e-05 0)
(0.98472 3.99294e-05 0)
(0.996637 -0.00329183 0)
(0.996515 -0.00312679 0)
(0.996462 -0.00295967 0)
(0.996472 -0.00279425 0)
(0.99655 -0.00263264 0)
(0.996714 -0.00247702 0)
(0.996991 -0.00232957 0)
(0.997416 -0.00219213 0)
(0.998032 -0.00206577 0)
(0.998881 -0.00195035 0)
(0.999997 -0.00184388 0)
(1.0014 -0.00174191 0)
(1.00306 -0.00163719 0)
(1.00495 -0.00151969 0)
(1.00696 -0.00137718 0)
(1.00896 -0.00119653 0)
(1.01079 -0.000965631 0)
(1.01228 -0.000675556 0)
(1.01326 -0.000322754 0)
(0.99331 -0.00343896 0)
(0.993367 -0.00306525 0)
(0.99338 -0.0026845 0)
(0.993346 -0.00229583 0)
(0.993259 -0.00189879 0)
(0.993103 -0.00149198 0)
(0.992854 -0.00107353 0)
(0.992483 -0.000641362 0)
(0.991952 -0.0001933 0)
(0.991218 0.000272424 0)
(0.990239 0.000756521 0)
(0.988983 0.00125781 0)
(0.987434 0.0017724 0)
(0.985606 0.00229301 0)
(0.983555 0.00280884 0)
(0.981385 0.00330612 0)
(0.979244 0.00376951 0)
(0.977317 0.00418434 0)
(0.9758 0.00453927 0)
(0.987707 -0.00336804 0)
(0.987424 -0.00290594 0)
(0.987195 -0.00243162 0)
(0.987009 -0.00194821 0)
(0.986867 -0.00145727 0)
(0.986775 -0.000961447 0)
(0.986751 -0.000464566 0)
(0.986825 2.84614e-05 0)
(0.987035 0.000511777 0)
(0.987433 0.000978935 0)
(0.988073 0.00142363 0)
(0.98901 0.0018408 0)
(0.990285 0.00222791 0)
(0.991913 0.00258645 0)
(0.993868 0.00292301 0)
(0.996073 0.00324976 0)
(0.99839 0.00358379 0)
(1.00063 0.00394512 0)
(1.00258 0.00435351 0)
(0.980619 -0.00493719 0)
(0.980424 -0.00418049 0)
(0.980209 -0.00342003 0)
(0.979986 -0.00265641 0)
(0.979763 -0.00189138 0)
(0.979545 -0.00112588 0)
(0.979332 -0.000360463 0)
(0.979116 0.000404877 0)
(0.978877 0.00117108 0)
(0.978583 0.0019402 0)
(0.978186 0.00271523 0)
(0.977624 0.00349962 0)
(0.976828 0.0042962 0)
(0.975732 0.00510583 0)
(0.974293 0.00592582 0)
(0.972508 0.00674881 0)
(0.970437 0.00756242 0)
(0.968214 0.00835056 0)
(0.966043 0.00909621 0)
(0.972078 -0.00844355 0)
(0.971699 -0.00765927 0)
(0.971378 -0.00686699 0)
(0.971113 -0.00606948 0)
(0.970904 -0.00526622 0)
(0.970758 -0.00445691 0)
(0.970686 -0.00364143 0)
(0.970702 -0.00281984 0)
(0.970825 -0.00199248 0)
(0.971083 -0.00116022 0)
(0.971512 -0.000324461 0)
(0.972156 0.000513034 0)
(0.973067 0.00135079 0)
(0.974295 0.00218872 0)
(0.975875 0.0030296 0)
(0.977805 0.00388058 0)
(0.98003 0.00475405 0)
(0.982419 0.00566703 0)
(0.984762 0.00663845 0)
(0.96248 -0.0119784 0)
(0.962141 -0.0107764 0)
(0.961791 -0.00955743 0)
(0.961444 -0.00832211 0)
(0.961107 -0.00707203 0)
(0.960786 -0.00580762 0)
(0.960481 -0.00452909 0)
(0.960188 -0.00323662 0)
(0.959897 -0.0019301 0)
(0.959584 -0.000609061 0)
(0.959213 0.000727354 0)
(0.95873 0.00208017 0)
(0.958062 0.00345001 0)
(0.957124 0.004836 0)
(0.955825 0.00623416 0)
(0.954099 0.00763551 0)
(0.951928 0.00902472 0)
(0.949381 0.0103803 0)
(0.946639 0.0116776 0)
(0.951442 -0.0187168 0)
(0.95081 -0.017532 0)
(0.950236 -0.0163329 0)
(0.949715 -0.015123 0)
(0.949249 -0.0139014 0)
(0.94884 -0.0126673 0)
(0.948495 -0.0114199 0)
(0.948224 -0.0101584 0)
(0.948039 -0.00888181 0)
(0.94796 -0.00758949 0)
(0.948013 -0.00628102 0)
(0.94824 -0.00495633 0)
(0.948695 -0.00361538 0)
(0.94945 -0.00225735 0)
(0.950583 -0.000879104 0)
(0.952165 0.000527013 0)
(0.954224 0.00197534 0)
(0.956706 0.00348773 0)
(0.959435 0.00509119 0)
(0.939745 -0.0250538 0)
(0.939114 -0.0233321 0)
(0.93848 -0.0215699 0)
(0.937853 -0.0197686 0)
(0.937239 -0.0179304 0)
(0.936643 -0.0160558 0)
(0.936065 -0.0141452 0)
(0.935501 -0.0121994 0)
(0.934945 -0.0102188 0)
(0.934381 -0.00820431 0)
(0.933781 -0.00615678 0)
(0.933104 -0.00407754 0)
(0.932284 -0.00196867 0)
(0.93123 0.000165979 0)
(0.929831 0.00231916 0)
(0.927963 0.00447763 0)
(0.925532 0.00661935 0)
(0.922521 0.00871207 0)
(0.919062 0.0107156 0)
(0.926816 -0.0341319 0)
(0.925704 -0.0324439 0)
(0.92466 -0.0307279 0)
(0.923676 -0.02899 0)
(0.922748 -0.0272308 0)
(0.921877 -0.0254513 0)
(0.921067 -0.0236527 0)
(0.920325 -0.0218361 0)
(0.919662 -0.0200022 0)
(0.919094 -0.0181516 0)
(0.918646 -0.016285 0)
(0.918358 -0.0144027 0)
(0.918288 -0.0125049 0)
(0.918523 -0.0105908 0)
(0.919178 -0.00865702 0)
(0.920388 -0.00669461 0)
(0.922275 -0.00468499 0)
(0.924886 -0.00259615 0)
(0.92811 -0.00038273 0)
(0.913229 -0.0439677 0)
(0.912076 -0.0416321 0)
(0.910937 -0.0392271 0)
(0.909824 -0.0367563 0)
(0.908744 -0.0342224 0)
(0.9077 -0.031626 0)
(0.906694 -0.0289676 0)
(0.905724 -0.0262478 0)
(0.904784 -0.0234675 0)
(0.903865 -0.020628 0)
(0.902947 -0.0177309 0)
(0.901997 -0.0147789 0)
(0.900959 -0.0117755 0)
(0.899746 -0.00872608 0)
(0.898229 -0.00563931 0)
(0.896238 -0.00253065 0)
(0.893585 0.000572823 0)
(0.890127 0.00362717 0)
(0.885881 0.0065704 0)
(0.898772 -0.0548718 0)
(0.896954 -0.0524931 0)
(0.895235 -0.0500542 0)
(0.893601 -0.0475662 0)
(0.892048 -0.045035 0)
(0.890573 -0.0424672 0)
(0.889179 -0.0398703 0)
(0.887869 -0.0372518 0)
(0.886653 -0.0346192 0)
(0.885544 -0.0319793 0)
(0.884564 -0.0293381 0)
(0.883748 -0.0267006 0)
(0.883151 -0.0240705 0)
(0.882861 -0.0214494 0)
(0.883012 -0.0188354 0)
(0.883786 -0.0162203 0)
(0.885403 -0.0135829 0)
(0.888046 -0.0108809 0)
(0.891732 -0.00804403 0)
(0.883055 -0.0682773 0)
(0.881082 -0.0651185 0)
(0.879159 -0.0618558 0)
(0.877308 -0.0584977 0)
(0.87554 -0.0550483 0)
(0.873864 -0.051509 0)
(0.872284 -0.0478804 0)
(0.870801 -0.0441629 0)
(0.869413 -0.0403566 0)
(0.868111 -0.0364622 0)
(0.866879 -0.0324807 0)
(0.865689 -0.0284144 0)
(0.864492 -0.0242671 0)
(0.863206 -0.0200451 0)
(0.8617 -0.0157588 0)
(0.859769 -0.0114263 0)
(0.857135 -0.00708032 0)
(0.853491 -0.00277917 0)
(0.848647 0.0013842 0)
(0.866875 -0.0812565 0)
(0.864035 -0.0778696 0)
(0.861368 -0.0743463 0)
(0.858858 -0.070709 0)
(0.856497 -0.0669737 0)
(0.854282 -0.0631593 0)
(0.852214 -0.0592867 0)
(0.850294 -0.0553783 0)
(0.848527 -0.0514575 0)
(0.846923 -0.0475476 0)
(0.845498 -0.0436719 0)
(0.844277 -0.039852 0)
(0.843308 -0.0361074 0)
(0.84267 -0.032454 0)
(0.842493 -0.0289018 0)
(0.842987 -0.0254517 0)
(0.84445 -0.0220873 0)
(0.847226 -0.0187601 0)
(0.851542 -0.0153718 0)
(0.848511 -0.0983088 0)
(0.845258 -0.093884 0)
(0.842131 -0.0892936 0)
(0.839171 -0.084556 0)
(0.836406 -0.0796838 0)
(0.833855 -0.074686 0)
(0.831532 -0.0695709 0)
(0.829445 -0.0643465 0)
(0.827598 -0.0590198 0)
(0.825986 -0.0535964 0)
(0.824597 -0.048081 0)
(0.823404 -0.0424768 0)
(0.822361 -0.036787 0)
(0.821392 -0.0310158 0)
(0.820363 -0.0251716 0)
(0.81905 -0.01927 0)
(0.817098 -0.0133451 0)
(0.814015 -0.00746922 0)
(0.809286 -0.0017711 0)
(0.829792 -0.114616 0)
(0.825299 -0.109698 0)
(0.821141 -0.104469 0)
(0.817299 -0.098978 0)
(0.813775 -0.0932628 0)
(0.810575 -0.0873662 0)
(0.807705 -0.0813351 0)
(0.805169 -0.0752197 0)
(0.80297 -0.0690738 0)
(0.801108 -0.0629535 0)
(0.799587 -0.0569181 0)
(0.798415 -0.0510283 0)
(0.797616 -0.0453449 0)
(0.79724 -0.039927 0)
(0.797393 -0.0348252 0)
(0.798272 -0.0300805 0)
(0.800223 -0.0257078 0)
(0.803735 -0.021671 0)
(0.809341 -0.0178638 0)
(0.808077 -0.136475 0)
(0.802654 -0.130023 0)
(0.7975 -0.123235 0)
(0.792719 -0.116143 0)
(0.788366 -0.10878 0)
(0.784491 -0.101179 0)
(0.781126 -0.0933809 0)
(0.778298 -0.0854283 0)
(0.77602 -0.0773647 0)
(0.774296 -0.0692319 0)
(0.77312 -0.0610662 0)
(0.772466 -0.0528961 0)
(0.772289 -0.0447412 0)
(0.772507 -0.0366097 0)
(0.772983 -0.0285089 0)
(0.773483 -0.0204386 0)
(0.773575 -0.012418 0)
(0.772603 -0.00452919 0)
(0.769636 0.00307799 0)
(0.785914 -0.158572 0)
(0.778378 -0.151304 0)
(0.771491 -0.143332 0)
(0.765216 -0.134744 0)
(0.759608 -0.125637 0)
(0.75471 -0.1161 0)
(0.750565 -0.106235 0)
(0.747197 -0.0961471 0)
(0.744626 -0.0859492 0)
(0.742851 -0.0757595 0)
(0.741863 -0.0657052 0)
(0.741638 -0.0559217 0)
(0.742154 -0.0465523 0)
(0.743403 -0.0377542 0)
(0.745426 -0.0296746 0)
(0.748333 -0.0224772 0)
(0.752492 -0.0162888 0)
(0.75846 -0.0111323 0)
(0.76709 -0.0069915 0)
(0.760173 -0.18816 0)
(0.750725 -0.178664 0)
(0.741744 -0.168327 0)
(0.733535 -0.157259 0)
(0.726222 -0.145495 0)
(0.719924 -0.133139 0)
(0.714721 -0.120304 0)
(0.710689 -0.107127 0)
(0.707864 -0.093751 0)
(0.70627 -0.0803254 0)
(0.705906 -0.0669945 0)
(0.706747 -0.0538907 0)
(0.70874 -0.041126 0)
(0.711792 -0.0287669 0)
(0.715731 -0.0168733 0)
(0.720352 -0.0054153 0)
(0.725057 0.00563468 0)
(0.729087 0.0161815 0)
(0.731137 0.026186 0)
(0.73445 -0.219916 0)
(0.721039 -0.209172 0)
(0.708849 -0.196937 0)
(0.697788 -0.183254 0)
(0.68804 -0.168379 0)
(0.679745 -0.15251 0)
(0.673057 -0.135862 0)
(0.668043 -0.118662 0)
(0.664786 -0.101151 0)
(0.663309 -0.0835734 0)
(0.663605 -0.0661868 0)
(0.665632 -0.0492588 0)
(0.669315 -0.0330665 0)
(0.674551 -0.0179411 0)
(0.681291 -0.00417197 0)
(0.689361 0.00779981 0)
(0.699215 0.0175851 0)
(0.711264 0.0250046 0)
(0.726519 0.0295799 0)
(0.704585 -0.261645 0)
(0.687567 -0.248059 0)
(0.671295 -0.232331 0)
(0.65648 -0.214872 0)
(0.643466 -0.195768 0)
(0.632519 -0.175243 0)
(0.623775 -0.15361 0)
(0.617437 -0.131182 0)
(0.613558 -0.108281 0)
(0.612202 -0.0852526 0)
(0.613375 -0.062433 0)
(0.61705 -0.0401585 0)
(0.623158 -0.018771 0)
(0.631604 0.001488 0)
(0.642084 0.020282 0)
(0.654633 0.0376427 0)
(0.668099 0.0535746 0)
(0.681809 0.0679152 0)
(0.6943 0.0812825 0)
(0.67644 -0.308309 0)
(0.652212 -0.292746 0)
(0.629999 -0.274044 0)
(0.610092 -0.252326 0)
(0.592747 -0.228018 0)
(0.578235 -0.201737 0)
(0.566939 -0.173887 0)
(0.558855 -0.14494 0)
(0.554164 -0.115359 0)
(0.552879 -0.0855643 0)
(0.555025 -0.0559999 0)
(0.560582 -0.0271157 0)
(0.5695 0.000649876 0)
(0.581609 0.0266661 0)
(0.597016 0.05056 0)
(0.614757 0.0712579 0)
(0.635997 0.0880212 0)
(0.660162 0.100259 0)
(0.688158 0.105602 0)
(0.643364 -0.36794 0)