/*--------------------------------*- C++ -*----------------------------------*\
  =========                 |
  \\      /  F ield         | OpenFOAM: The Open Source CFD Toolbox
   \\    /   O peration     | Website:  https://openfoam.org
    \\  /    A nd           | Version:  10
     \\/     M anipulation  |
\*---------------------------------------------------------------------------*/
FoamFile
{
    format      ascii;
    class       volVectorField;
    location    "0";
    object      U;
}
// * * * * * * * * * * * * * * * * * * * * * * * * * * * * * * * * * * * * * //

dimensions      [0 1 -1 0 0 0 0];

internalField   nonuniform List<vector> 
18483
(
(1 -0.000152016 0)
(1 -0.000552459 0)
(1 -0.00090384 0)
(0.999999 -0.00130412 0)
(0.999995 -0.0017134 0)
(0.999991 -0.00213486 0)
(0.999987 -0.00254929 0)
(0.999982 -0.00294089 0)
(0.999977 -0.00329493 0)
(0.99997 -0.00360261 0)
(0.999962 -0.00386404 0)
(0.999953 -0.00408952 0)
(0.999944 -0.00429712 0)
(0.999937 -0.00452436 0)
(0.999934 -0.00481357 0)
(0.999926 -0.00519713 0)
(0.999855 -0.00564235 0)
(0.999473 -0.00604901 0)
(0.998118 -0.00632572 0)
(0.99496 -0.00638613 0)
(0.990401 -0.0062457 0)
(0.986893 -0.00603517 0)
(0.986604 -0.00581205 0)
(0.988989 -0.00555259 0)
(0.992103 -0.00527266 0)
(0.99471 -0.00501369 0)
(0.996523 -0.00479541 0)
(0.997678 -0.00462097 0)
(0.998381 -0.00448545 0)
(1.00047 -0.000440871 0)
(1.00051 -0.00159112 0)
(1.0006 -0.00260494 0)
(1.0007 -0.00377337 0)
(1.00081 -0.00497511 0)
(1.0009 -0.00622532 0)
(1.00097 -0.00746757 0)
(1.00101 -0.00865545 0)
(1.001 -0.00973943 0)
(1.00096 -0.0106798 0)
(1.00088 -0.0114448 0)
(1.00081 -0.0120267 0)
(1.00077 -0.0124185 0)
(1.00078 -0.0125614 0)
(1.00087 -0.0123742 0)
(1.00098 -0.0117875 0)
(1.00105 -0.0108634 0)
(1.0012 -0.00982388 0)
(1.002 -0.0089225 0)
(1.00435 -0.00845293 0)
(1.00824 -0.00854832 0)
(1.01135 -0.00895934 0)
(1.01117 -0.00936418 0)
(1.00817 -0.00968145 0)
(1.00463 -0.00990934 0)
(1.00194 -0.0100309 0)
(1.00025 -0.01006 0)
(0.999288 -0.0100218 0)
(0.998772 -0.0099406 0)
(1.00139 -0.000721572 0)
(1.00151 -0.00257866 0)
(1.00175 -0.00420449 0)
(1.00203 -0.00607743 0)
(1.00233 -0.00799118 0)
(1.0026 -0.00998583 0)
(1.0028 -0.0119727 0)
(1.0029 -0.0138823 0)
(1.00287 -0.0156314 0)
(1.0027 -0.0171532 0)
(1.00241 -0.0183949 0)
(1.002 -0.019327 0)
(1.00152 -0.0199485 0)
(1.00098 -0.0202983 0)
(1.00036 -0.0205209 0)
(0.999596 -0.0208362 0)
(0.998718 -0.0213337 0)
(0.997727 -0.0218734 0)
(0.996416 -0.0222086 0)
(0.994288 -0.0220923 0)
(0.991205 -0.0213806 0)
(0.988398 -0.0202745 0)
(0.98768 -0.019213 0)
(0.989084 -0.0183358 0)
(0.991054 -0.0175616 0)
(0.992537 -0.0168842 0)
(0.993398 -0.0163051 0)
(0.993824 -0.0158151 0)
(0.994001 -0.015405 0)
(1.00254 -0.000989244 0)
(1.00276 -0.00350456 0)
(1.00317 -0.00568834 0)
(1.00365 -0.00819697 0)
(1.00418 -0.010742 0)
(1.00466 -0.013398 0)
(1.00502 -0.0160533 0)
(1.0052 -0.0186288 0)
(1.00514 -0.0210199 0)
(1.00483 -0.0231447 0)
(1.00428 -0.0249356 0)
(1.00351 -0.0263401 0)
(1.00261 -0.0273603 0)
(1.00161 -0.0280493 0)
(1.00059 -0.0284312 0)
(0.99962 -0.0283565 0)
(0.99877 -0.0276557 0)
(0.998113 -0.0264505 0)
(0.997945 -0.0250957 0)
(0.998953 -0.0239639 0)
(1.0015 -0.0233014 0)
(1.00417 -0.0231234 0)
(1.00455 -0.0230777 0)
(1.00216 -0.0229363 0)
(0.998829 -0.0228025 0)
(0.99608 -0.0226844 0)
(0.994226 -0.0225457 0)
(0.993056 -0.022382 0)
(0.992321 -0.0221967 0)
(1.00375 -0.00122631 0)
(1.00407 -0.00431458 0)
(1.00466 -0.00697921 0)
(1.00537 -0.0100344 0)
(1.00616 -0.0131213 0)
(1.00688 -0.0163543 0)
(1.00745 -0.0196083 0)
(1.00777 -0.0228037 0)
(1.00776 -0.0258172 0)
(1.00739 -0.0285381 0)
(1.00667 -0.0308674 0)
(1.00565 -0.0327263 0)
(1.00437 -0.0340945 0)
(1.00291 -0.0349815 0)
(1.00135 -0.0354276 0)
(0.999696 -0.0355771 0)
(0.997904 -0.035685 0)
(0.995989 -0.0359223 0)
(0.993953 -0.0361259 0)
(0.991541 -0.0359525 0)
(0.988376 -0.0351912 0)
(0.984944 -0.0338399 0)
(0.982987 -0.0322915 0)
(0.983379 -0.0309321 0)
(0.984855 -0.0296781 0)
(0.98601 -0.028487 0)
(0.986545 -0.0274194 0)
(0.986663 -0.0264894 0)
(0.98657 -0.0256946 0)
(1.005 -0.0014232 0)
(1.00543 -0.00497877 0)
(1.0062 -0.00803519 0)
(1.00715 -0.0115391 0)
(1.00822 -0.0150751 0)
(1.00923 -0.0188015 0)
(1.01006 -0.0225875 0)
(1.01058 -0.0263595 0)
(1.01069 -0.0299813 0)
(1.0103 -0.0333231 0)
(1.00941 -0.036273 0)
(1.00803 -0.0387543 0)
(1.00623 -0.0407355 0)
(1.00411 -0.0421958 0)
(1.0018 -0.0431661 0)
(0.999396 -0.0436678 0)
(0.997033 -0.0435765 0)
(0.994814 -0.0427549 0)
(0.992942 -0.0413271 0)
(0.991995 -0.0396923 0)
(0.992722 -0.0382678 0)
(0.99465 -0.0373188 0)
(0.995426 -0.0366704 0)
(0.993391 -0.0359813 0)
(0.989767 -0.0353607 0)
(0.986516 -0.034898 0)
(0.984213 -0.034486 0)
(0.982639 -0.0340778 0)
(0.981528 -0.0336648 0)
(1.00628 -0.00158121 0)
(1.00682 -0.0055037 0)
(1.00777 -0.00886945 0)
(1.00898 -0.0127325 0)
(1.01034 -0.0166338 0)
(1.01166 -0.0207782 0)
(1.01281 -0.0250369 0)
(1.01359 -0.0293521 0)
(1.01387 -0.0335903 0)
(1.01353 -0.0376218 0)
(1.01254 -0.0413184 0)
(1.01091 -0.0445616 0)
(1.00877 -0.0472461 0)
(1.00627 -0.0492678 0)
(1.00352 -0.0505807 0)
(1.00061 -0.0512277 0)
(0.997544 -0.051448 0)
(0.994271 -0.0516209 0)
(0.990802 -0.0518688 0)
(0.987023 -0.051917 0)
(0.982517 -0.051406 0)
(0.977358 -0.0501673 0)
(0.973332 -0.0484989 0)
(0.97238 -0.0468847 0)
(0.973601 -0.0452936 0)
(0.974761 -0.0436201 0)
(0.975132 -0.0420301 0)
(0.974998 -0.0406161 0)
(0.97464 -0.0393941 0)
(1.00756 -0.00170653 0)
(1.00822 -0.00591285 0)
(1.00935 -0.00952029 0)
(1.01081 -0.0136683 0)
(1.01247 -0.0178645 0)
(1.01414 -0.022361 0)
(1.01563 -0.0270377 0)
(1.01674 -0.0318617 0)
(1.01729 -0.0367096 0)
(1.01714 -0.0414506 0)
(1.01623 -0.0459223 0)
(1.01455 -0.0499503 0)
(1.0122 -0.0533899 0)
(1.00926 -0.0561465 0)
(1.00579 -0.0582102 0)
(1.0019 -0.0596371 0)
(0.997723 -0.0604522 0)
(0.993494 -0.0604096 0)
(0.989515 -0.0593185 0)
(0.986397 -0.0575271 0)
(0.985191 -0.055634 0)
(0.986182 -0.0541241 0)
(0.987057 -0.0529658 0)
(0.984733 -0.051762 0)
(0.979704 -0.0506371 0)
(0.974936 -0.0498307 0)
(0.9716 -0.0491552 0)
(0.969284 -0.048482 0)
(0.967578 -0.0478025 0)
(1.00882 -0.00180561 0)
(1.00958 -0.00623018 0)
(1.01089 -0.0100258 0)
(1.01259 -0.014399 0)
(1.01456 -0.0188313 0)
(1.01659 -0.0236217 0)
(1.01846 -0.028662 0)
(1.01997 -0.033949 0)
(1.02089 -0.0393738 0)
(1.02104 -0.0448112 0)
(1.02032 -0.050093 0)
(1.01864 -0.0550397 0)
(1.01603 -0.0594986 0)
(1.01256 -0.0633464 0)
(1.0084 -0.0664743 0)
(1.00377 -0.0687321 0)
(0.998865 -0.0700827 0)
(0.993766 -0.0707978 0)
(0.98844 -0.0713633 0)
(0.982855 -0.0719226 0)
(0.976488 -0.072028 0)
(0.968794 -0.0712228 0)
(0.961558 -0.069664 0)
(0.958363 -0.06798 0)
(0.959257 -0.0662063 0)
(0.960553 -0.0640781 0)
(0.960574 -0.0619011 0)
(0.959905 -0.059929 0)
(0.959022 -0.0581959 0)
(1.01002 -0.00188356 0)
(1.01088 -0.00647425 0)
(1.01236 -0.0104151 0)
(1.01429 -0.0149647 0)
(1.01657 -0.0195837 0)
(1.01895 -0.0246151 0)
(1.02123 -0.0299644 0)
(1.02317 -0.0356607 0)
(1.02453 -0.0416192 0)
(1.02509 -0.0477416 0)
(1.02466 -0.053881 0)
(1.02313 -0.0598593 0)
(1.02048 -0.0654689 0)
(1.01683 -0.0704732 0)
(1.01233 -0.0746616 0)
(1.00712 -0.0778787 0)
(1.00128 -0.0801198 0)
(0.994973 -0.0813969 0)
(0.988616 -0.0814567 0)
(0.982996 -0.0801908 0)
(0.979422 -0.0781566 0)
(0.97904 -0.0762165 0)
(0.979956 -0.0747062 0)
(0.977209 -0.0731465 0)
(0.969719 -0.0715354 0)
(0.962114 -0.0704258 0)
(0.957014 -0.0695749 0)
(0.953519 -0.0686601 0)
(0.950871 -0.067705 0)
(1.01114 -0.00194391 0)
(1.01209 -0.00665796 0)
(1.01373 -0.0107086 0)
(1.01589 -0.0153934 0)
(1.01845 -0.0201558 0)
(1.02119 -0.0253791 0)
(1.02389 -0.0309825 0)
(1.02631 -0.037028 0)
(1.02817 -0.043464 0)
(1.02924 -0.0502295 0)
(1.02928 -0.0572008 0)
(1.02815 -0.0641952 0)
(1.02578 -0.0709718 0)
(1.02217 -0.0772597 0)
(1.01734 -0.0828469 0)
(1.01141 -0.0875759 0)
(1.00457 -0.0913066 0)
(0.997143 -0.0940051 0)
(0.989448 -0.0960081 0)
(0.981555 -0.097834 0)
(0.97283 -0.0993512 0)
(0.961989 -0.0997325 0)
(0.95028 -0.098603 0)
(0.943279 -0.0968213 0)
(0.943371 -0.0948889 0)
(0.945004 -0.0922773 0)
(0.944346 -0.0893226 0)
(0.94263 -0.0866388 0)
(0.940804 -0.0842636 0)
(1.01218 -0.00198923 0)
(1.01321 -0.00679048 0)
(1.015 -0.0109205 0)
(1.01737 -0.0157048 0)
(1.02021 -0.0205716 0)
(1.0233 -0.0259405 0)
(1.02642 -0.031743 0)
(1.02933 -0.0380725 0)
(1.03175 -0.0449115 0)
(1.03343 -0.0522386 0)
(1.03409 -0.059963 0)
(1.03354 -0.0679299 0)
(1.0316 -0.0759269 0)
(1.02815 -0.0836873 0)
(1.02318 -0.0909195 0)
(1.01685 -0.0972988 0)
(1.00941 -0.102506 0)
(1.00112 -0.106319 0)
(0.992361 -0.108502 0)
(0.983896 -0.108747 0)
(0.977117 -0.107247 0)
(0.974078 -0.105112 0)
(0.974326 -0.103542 0)
(0.971391 -0.102247 0)
(0.960848 -0.100524 0)
(0.948731 -0.0992116 0)
(0.940871 -0.0983825 0)
(0.935712 -0.0972971 0)
(0.931662 -0.0960289 0)
(1.01312 -0.00202174 0)
(1.01423 -0.00687962 0)
(1.01615 -0.0110629 0)
(1.01872 -0.0159156 0)
(1.02183 -0.0208519 0)
(1.02525 -0.0263235 0)
(1.02879 -0.0322725 0)
(1.03219 -0.0388187 0)
(1.0352 -0.0459769 0)
(1.03754 -0.0537685 0)
(1.03892 -0.062154 0)
(1.03907 -0.0710351 0)
(1.03774 -0.0802394 0)
(1.03477 -0.0894876 0)
(1.03008 -0.0984107 0)
(1.0237 -0.106621 0)
(1.01573 -0.113813 0)
(1.00641 -0.119829 0)
(0.996146 -0.124753 0)
(0.98535 -0.129142 0)
(0.97372 -0.133314 0)
(0.959565 -0.136281 0)
(0.942623 -0.136605 0)
(0.929515 -0.134785 0)
(0.926976 -0.132526 0)
(0.928966 -0.129519 0)
(0.927334 -0.12557 0)
(0.923778 -0.121924 0)
(0.920444 -0.118761 0)
(1.01398 -0.00204362 0)
(1.01516 -0.00693285 0)
(1.01721 -0.0111475 0)
(1.01996 -0.0160419 0)
(1.02331 -0.0210173 0)
(1.02705 -0.0265538 0)
(1.03098 -0.0326007 0)
(1.03487 -0.0392989 0)
(1.03846 -0.0466924 0)
(1.04149 -0.0548469 0)
(1.04365 -0.0637803 0)
(1.04465 -0.0734552 0)
(1.0442 -0.0837456 0)
(1.04205 -0.0944028 0)
(1.03794 -0.105078 0)
(1.03176 -0.115372 0)
(1.02357 -0.124856 0)
(1.01371 -0.133057 0)
(1.00269 -0.139364 0)
(0.991242 -0.142988 0)
(0.980589 -0.14346 0)
(0.9731 -0.141728 0)
(0.970698 -0.140125 0)
(0.967754 -0.139792 0)
(0.954852 -0.138994 0)
(0.936444 -0.137661 0)
(0.923939 -0.13704 0)
(0.916411 -0.135978 0)
(0.910238 -0.134277 0)
(1.01475 -0.00205703 0)
(1.016 -0.0069574 0)
(1.01816 -0.0111853 0)
(1.02108 -0.0160994 0)
(1.02465 -0.0210886 0)
(1.02869 -0.0266573 0)
(1.03299 -0.0327589 0)
(1.03734 -0.0395498 0)
(1.04151 -0.0470982 0)
(1.04523 -0.0555098 0)
(1.04824 -0.0648556 0)
(1.0502 -0.075163 0)
(1.0508 -0.0863814 0)
(1.04967 -0.0983461 0)
(1.04643 -0.110762 0)
(1.04087 -0.123193 0)
(1.03295 -0.135102 0)
(1.02283 -0.145973 0)
(1.01077 -0.155475 0)
(0.997071 -0.1639 0)
(0.981894 -0.172103 0)
(0.964175 -0.179688 0)
(0.942176 -0.184037 0)
(0.920706 -0.183412 0)
(0.911326 -0.180505 0)
(0.91243 -0.177214 0)
(0.909981 -0.17227 0)
(0.903434 -0.16713 0)
(0.8977 -0.1629 0)
(1.01545 -0.00206391 0)
(1.01676 -0.00695993 0)
(1.01902 -0.011187 0)
(1.02209 -0.0161029 0)
(1.02587 -0.0210855 0)
(1.03018 -0.0266594 0)
(1.03482 -0.0327785 0)
(1.0396 -0.0396099 0)
(1.04432 -0.0472403 0)
(1.04873 -0.0558077 0)
(1.05257 -0.0654305 0)
(1.05554 -0.0762066 0)
(1.05728 -0.0881789 0)
(1.05736 -0.101281 0)
(1.05533 -0.115287 0)
(1.05083 -0.129794 0)
(1.04364 -0.144279 0)
(1.03374 -0.158173 0)
(1.02138 -0.170709 0)
(1.00721 -0.180609 0)
(0.992458 -0.186221 0)
(0.97917 -0.187063 0)
(0.970874 -0.185719 0)
(0.966487 -0.186381 0)
(0.953286 -0.188185 0)
(0.927963 -0.187779 0)
(0.907114 -0.187254 0)
(0.895612 -0.18661 0)
(0.886181 -0.184311 0)
(1.01608 -0.00206599 0)
(1.01744 -0.00694633 0)
(1.0198 -0.0111619 0)
(1.023 -0.0160657 0)
(1.02698 -0.0210255 0)
(1.03152 -0.0265833 0)
(1.03648 -0.0326895 0)
(1.04166 -0.0395188 0)
(1.04688 -0.0471698 0)
(1.05193 -0.0558043 0)
(1.05659 -0.0655815 0)
(1.06056 -0.0766663 0)
(1.0635 -0.0891921 0)
(1.06496 -0.103196 0)
(1.06443 -0.118566 0)
(1.06139 -0.135009 0)
(1.05542 -0.152043 0)
(1.04635 -0.169013 0)
(1.03416 -0.185091 0)
(1.01885 -0.199624 0)
(1.0005 -0.213315 0)
(0.978865 -0.227361 0)
(0.952432 -0.239488 0)
(0.922038 -0.244248 0)
(0.899963 -0.241746 0)
(0.89518 -0.237901 0)
(0.892296 -0.232743 0)
(0.881634 -0.225575 0)
(0.871586 -0.219667 0)
(1.01666 -0.00206468 0)
(1.01806 -0.00692156 0)
(1.0205 -0.0111181 0)
(1.02383 -0.0159993 0)
(1.02797 -0.0209245 0)
(1.03274 -0.0264502 0)
(1.03797 -0.0325202 0)
(1.04351 -0.0393139 0)
(1.04919 -0.0469359 0)
(1.05484 -0.0555636 0)
(1.06026 -0.0653868 0)
(1.06522 -0.0766262 0)
(1.0694 -0.0894978 0)
(1.07235 -0.104152 0)
(1.0735 -0.120622 0)
(1.07222 -0.138762 0)
(1.06797 -0.158179 0)
(1.06031 -0.17827 0)
(1.04891 -0.198246 0)
(1.03374 -0.216826 0)
(1.01563 -0.231748 0)
(0.99667 -0.240255 0)
(0.980225 -0.242225 0)
(0.970017 -0.243251 0)
(0.957357 -0.248686 0)
(0.927507 -0.252688 0)
(0.893328 -0.252569 0)
(0.873283 -0.252607 0)
(0.858946 -0.250068 0)
(1.01718 -0.00206107 0)
(1.01863 -0.00688956 0)
(1.02114 -0.0110621 0)
(1.02457 -0.0159133 0)
(1.02887 -0.0207955 0)
(1.03383 -0.0262778 0)
(1.03932 -0.0322943 0)
(1.04518 -0.0390273 0)
(1.05128 -0.0465821 0)
(1.05747 -0.055143 0)
(1.0636 -0.0649207 0)
(1.0695 -0.0761785 0)
(1.07489 -0.0892077 0)
(1.07933 -0.104272 0)
(1.08225 -0.121549 0)
(1.083 -0.141061 0)
(1.08089 -0.16258 0)
(1.07524 -0.185598 0)
(1.06547 -0.209327 0)
(1.05114 -0.232532 0)
(1.03186 -0.254289 0)
(1.00728 -0.276045 0)
(0.976935 -0.29891 0)
(0.939644 -0.316782 0)
(0.901161 -0.320912 0)
(0.880083 -0.316346 0)
(0.87401 -0.311736 0)
(0.859613 -0.303662 0)
(0.841474 -0.294813 0)
(1.01766 -0.00205599 0)
(1.01914 -0.00685334 0)
(1.02172 -0.010999 0)
(1.02525 -0.0158154 0)
(1.02969 -0.0206492 0)
(1.03482 -0.0260803 0)
(1.04053 -0.0320311 0)
(1.04668 -0.0386855 0)
(1.05315 -0.0461451 0)
(1.05983 -0.0545945 0)
(1.06662 -0.0642557 0)
(1.07337 -0.075423 0)
(1.07989 -0.0884495 0)
(1.08579 -0.1037 0)
(1.09052 -0.121482 0)
(1.09345 -0.142002 0)
(1.0938 -0.165243 0)
(1.09069 -0.190856 0)
(1.08322 -0.218226 0)
(1.07059 -0.246369 0)
(1.05233 -0.27334 0)
(1.02959 -0.295545 0)
(1.00553 -0.308561 0)
(0.984805 -0.313248 0)
(0.968747 -0.320815 0)
(0.939279 -0.334029 0)
(0.890406 -0.339288 0)
(0.851641 -0.339537 0)
(0.828693 -0.33828 0)
(1.01809 -0.00205003 0)
(1.01961 -0.00681512 0)
(1.02225 -0.0109326 0)
(1.02586 -0.0157113 0)
(1.03042 -0.0204937 0)
(1.0357 -0.025869 0)
(1.04162 -0.031746 0)
(1.04803 -0.0383102 0)
(1.05483 -0.0456564 0)
(1.06194 -0.0539638 0)
(1.06929 -0.0634578 0)
(1.07682 -0.0744517 0)
(1.08438 -0.0873421 0)
(1.09167 -0.102577 0)
(1.0982 -0.120586 0)
(1.10336 -0.141746 0)
(1.10637 -0.166278 0)
(1.10619 -0.194048 0)
(1.10169 -0.224637 0)
(1.09183 -0.257239 0)
(1.07552 -0.290135 0)
(1.05168 -0.322431 0)
(1.01953 -0.356961 0)
(0.978118 -0.39348 0)
(0.926461 -0.418173 0)
(0.878641 -0.420314 0)
(0.856185 -0.41492 0)
(0.839434 -0.409658 0)
(0.809608 -0.397771 0)
(1.01848 -0.00204365 0)
(1.02002 -0.00677657 0)
(1.02272 -0.0108658 0)
(1.0264 -0.0156054 0)
(1.03108 -0.0203354 0)
(1.0365 -0.0256526 0)
(1.04259 -0.0314516 0)
(1.04923 -0.0379194 0)
(1.05631 -0.0451414 0)
(1.0638 -0.053288 0)
(1.07166 -0.0625806 0)
(1.07988 -0.0733401 0)
(1.08839 -0.0859903 0)
(1.09697 -0.101045 0)
(1.10522 -0.11904 0)
(1.11257 -0.1405 0)
(1.1183 -0.165876 0)
(1.12134 -0.195292 0)
(1.12033 -0.22854 0)
(1.114 -0.265246 0)
(1.10079 -0.30428 0)
(1.07959 -0.342991 0)
(1.05229 -0.376204 0)
(1.02249 -0.396602 0)
(0.994644 -0.407027 0)
(0.965288 -0.428173 0)
(0.910268 -0.451987 0)
(0.841369 -0.456691 0)
(0.796636 -0.457013 0)
(1.01883 -0.00203718 0)
(1.0204 -0.00673887 0)
(1.02314 -0.0108006 0)
(1.02688 -0.0155011 0)
(1.03167 -0.0201791 0)
(1.0372 -0.0254377 0)
(1.04345 -0.0311573 0)
(1.05029 -0.0375268 0)
(1.05762 -0.0446198 0)
(1.06544 -0.0525954 0)
(1.07375 -0.061665 0)
(1.08258 -0.0721488 0)
(1.09194 -0.0844846 0)
(1.1017 -0.0992333 0)
(1.11154 -0.11702 0)
(1.12098 -0.138486 0)
(1.1294 -0.164275 0)
(1.13577 -0.194802 0)
(1.13859 -0.230105 0)
(1.13641 -0.270162 0)
(1.12766 -0.314316 0)
(1.11022 -0.360374 0)
(1.08207 -0.408111 0)
(1.04163 -0.46282 0)
(0.985679 -0.521295 0)
(0.913189 -0.554801 0)
(0.851345 -0.553528 0)
(0.820224 -0.550588 0)
(0.781592 -0.543018 0)
(1.01914 -0.00203085 0)
(1.02073 -0.00670282 0)
(1.02352 -0.0107384 0)
(1.02731 -0.0154006 0)
(1.03218 -0.0200281 0)
(1.03782 -0.0252292 0)
(1.04421 -0.0308703 0)
(1.05122 -0.0371423 0)
(1.05878 -0.0441058 0)
(1.06688 -0.0519071 0)
(1.07558 -0.0607435 0)
(1.08495 -0.0709279 0)
(1.09506 -0.0829022 0)
(1.10586 -0.0972559 0)
(1.11716 -0.114682 0)
(1.12855 -0.135917 0)
(1.13952 -0.161749 0)
(1.14919 -0.192866 0)
(1.15605 -0.229598 0)
(1.15846 -0.272177 0)
(1.15481 -0.320706 0)
(1.14266 -0.374155 0)
(1.11996 -0.429519 0)
(1.08881 -0.479428 0)
(1.05176 -0.511416 0)
(1.01235 -0.534194 0)
(0.959652 -0.582099 0)
(0.86637 -0.618167 0)
(0.770607 -0.618206 0)
(1.01941 -0.00202481 0)
(1.02103 -0.00666895 0)
(1.02385 -0.01068 0)
(1.02769 -0.0153055 0)
(1.03264 -0.019885 0)
(1.03836 -0.0250307 0)
(1.04488 -0.0305958 0)
(1.05204 -0.0367733 0)
(1.05979 -0.0436099 0)
(1.06814 -0.0512392 0)
(1.07717 -0.0598415 0)
(1.087 -0.069717 0)
(1.09777 -0.0813041 0)
(1.10949 -0.0952048 0)
(1.12209 -0.112159 0)
(1.13528 -0.132982 0)
(1.14863 -0.158561 0)
(1.16142 -0.189794 0)
(1.17235 -0.227339 0)
(1.17959 -0.271686 0)
(1.18149 -0.323379 0)
(1.17616 -0.3823 0)
(1.16029 -0.446475 0)
(1.1289 -0.516404 0)
(1.07919 -0.602562 0)
(1.00516 -0.699596 0)
(0.899766 -0.748593 0)
(0.808266 -0.74292 0)
(0.752848 -0.745343 0)
(1.01966 -0.00201914 0)
(1.02129 -0.00663758 0)
(1.02414 -0.0106258 0)
(1.02803 -0.0152167 0)
(1.03305 -0.0197512 0)
(1.03884 -0.0248442 0)
(1.04547 -0.030337 0)
(1.05276 -0.0364248 0)
(1.06067 -0.0431398 0)
(1.06924 -0.0506036 0)
(1.07855 -0.0589778 0)
(1.08877 -0.0685461 0)
(1.1001 -0.0797364 0)
(1.11263 -0.093153 0)
(1.12637 -0.109562 0)
(1.14119 -0.129841 0)
(1.15674 -0.154952 0)
(1.17241 -0.185922 0)
(1.18718 -0.223701 0)
(1.1994 -0.269106 0)
(1.20711 -0.322882 0)
(1.20874 -0.385858 0)
(1.20155 -0.458548 0)
(1.18056 -0.538188 0)
(1.14589 -0.613388 0)
(1.09982 -0.664181 0)
(1.0437 -0.715141 0)
(0.94944 -0.818093 0)
(0.784903 -0.860923 0)
(1.01987 -0.00201391 0)
(1.02152 -0.00660885 0)
(1.0244 -0.0105761 0)
(1.02832 -0.0151348 0)
(1.0334 -0.0196275 0)
(1.03927 -0.0246712 0)
(1.04599 -0.0300963 0)
(1.05338 -0.0361 0)
(1.06144 -0.0427007 0)
(1.07019 -0.0500082 0)
(1.07974 -0.0581648 0)
(1.09029 -0.0674352 0)
(1.1021 -0.0782323 0)
(1.11533 -0.0911547 0)
(1.13008 -0.106981 0)
(1.14632 -0.126626 0)
(1.16385 -0.151115 0)
(1.18216 -0.181551 0)
(1.20045 -0.219067 0)
(1.21745 -0.264836 0)
(1.23118 -0.319876 0)
(1.23981 -0.385252 0)
(1.24241 -0.462928 0)
(1.23377 -0.552584 0)
(1.20106 -0.653165 0)
(1.14299 -0.787914 0)
(1.05714 -0.96438 0)
(0.889067 -1.05664 0)
(0.698417 -1.03765 0)
(1.02006 -0.00200913 0)
(1.02172 -0.00658279 0)
(1.02463 -0.010531 0)
(1.02858 -0.0150599 0)
(1.03371 -0.0195144 0)
(1.03964 -0.0245123 0)
(1.04644 -0.0298749 0)
(1.05393 -0.0358008 0)
(1.06211 -0.0422954 0)
(1.07101 -0.0494576 0)
(1.08076 -0.0574103 0)
(1.0916 -0.0663982 0)
(1.10381 -0.0768157 0)
(1.11764 -0.0892504 0)
(1.13325 -0.104483 0)
(1.15073 -0.123448 0)
(1.17001 -0.147211 0)
(1.19072 -0.176938 0)
(1.21217 -0.213844 0)
(1.23348 -0.25934 0)
(1.2532 -0.314878 0)
(1.26909 -0.381519 0)
(1.28039 -0.461699 0)
(1.285 -0.560181 0)
(1.27305 -0.675684 0)
(1.24144 -0.788489 0)
(1.18909 -0.873748 0)
(1.10785 -1.00264 0)
(0.907802 -1.22515 0)
(1.02023 -0.00200481 0)
(1.0219 -0.00655937 0)
(1.02483 -0.0104902 0)
(1.02881 -0.0149922 0)
(1.03398 -0.0194118 0)
(1.03996 -0.0243678 0)
(1.04683 -0.0296732 0)
(1.05441 -0.0355279 0)
(1.06269 -0.0419254 0)
(1.07172 -0.048954 0)
(1.08164 -0.0567182 0)
(1.09272 -0.0654425 0)
(1.10527 -0.0755013 0)
(1.1196 -0.087467 0)
(1.13596 -0.102114 0)
(1.1545 -0.120386 0)
(1.17529 -0.143365 0)
(1.19813 -0.172264 0)
(1.22244 -0.208349 0)
(1.24752 -0.253088 0)
(1.27271 -0.308324 0)
(1.29596 -0.375468 0)
(1.31557 -0.456479 0)
(1.33336 -0.557587 0)
(1.34425 -0.68168 0)
(1.32186 -0.817596 0)
(1.2643 -1.01846 0)
(1.19064 -1.39163 0)
(0.834783 -1.56264 0)
(0.998801 -0.00437978 0)
(0.99906 -0.00428816 0)
(0.999202 -0.00420036 0)
(0.999239 -0.0041152 0)
(0.999173 -0.00403154 0)
(0.998997 -0.00394795 0)
(0.998695 -0.00386296 0)
(0.998244 -0.00377526 0)
(0.997619 -0.00368373 0)
(0.996794 -0.00358768 0)
(0.995752 -0.00348704 0)
(0.994489 -0.00338258 0)
(0.993023 -0.00327604 0)
(0.991397 -0.00317002 0)
(0.989687 -0.00306781 0)
(0.987996 -0.00297283 0)
(0.986448 -0.00288798 0)
(0.985174 -0.00281497 0)
(0.984293 -0.00275366 0)
(0.998504 -0.00983753 0)
(0.998365 -0.00972293 0)
(0.998309 -0.00959811 0)
(0.998322 -0.00946667 0)
(0.998397 -0.00933032 0)
(0.998541 -0.00919097 0)
(0.998768 -0.00905059 0)
(0.999104 -0.00891109 0)
(0.999582 -0.00877411 0)
(1.00024 -0.00864075 0)
(1.00111 -0.00851112 0)
(1.00222 -0.00838387 0)
(1.00357 -0.0082558 0)
(1.00514 -0.00812173 0)
(1.00688 -0.00797487 0)
(1.00867 -0.00780769 0)
(1.01038 -0.00761338 0)
(1.01184 -0.0073876 0)
(1.01291 -0.00713004 0)
(0.994046 -0.0150585 0)
(0.99402 -0.0147342 0)
(0.993938 -0.0144014 0)
(0.993809 -0.0140598 0)
(0.993633 -0.0137105 0)
(0.993402 -0.0133542 0)
(0.993102 -0.0129914 0)
(0.992713 -0.0126231 0)
(0.992204 -0.0122504 0)
(0.991539 -0.0118755 0)
(0.99068 -0.0115016 0)
(0.98959 -0.0111337 0)
(0.988246 -0.0107786 0)
(0.986649 -0.0104453 0)
(0.984841 -0.010144 0)
(0.982908 -0.00988478 0)
(0.980985 -0.00967528 0)
(0.97925 -0.00951825 0)
(0.977894 -0.00940928 0)
(0.991846 -0.0220023 0)
(0.991507 -0.0218035 0)
(0.991253 -0.0215977 0)
(0.991072 -0.0213871 0)
(0.990958 -0.0211714 0)
(0.990919 -0.0209502 0)
(0.990971 -0.0207236 0)
(0.991141 -0.0204909 0)
(0.991468 -0.0202511 0)
(0.992003 -0.0200018 0)
(0.9928 -0.0197388 0)
(0.993913 -0.0194556 0)
(0.995381 -0.0191421 0)
(0.99721 -0.0187852 0)
(0.999353 -0.018369 0)
(1.00169 -0.0178773 0)
(1.00405 -0.0172968 0)
(1.00616 -0.0166215 0)
(1.00776 -0.015857 0)
(0.986385 -0.025013 0)
(0.986155 -0.0243704 0)
(0.985882 -0.0237087 0)
(0.985575 -0.0230272 0)
(0.985236 -0.0223272 0)
(0.984857 -0.0216094 0)
(0.984425 -0.020875 0)
(0.983911 -0.0201253 0)
(0.983277 -0.0193631 0)
(0.982468 -0.0185922 0)
(0.981413 -0.0178189 0)
(0.980034 -0.0170529 0)
(0.978255 -0.0163079 0)
(0.976029 -0.0156026 0)
(0.973361 -0.0149592 0)
(0.970344 -0.0144014 0)
(0.967177 -0.0139495 0)
(0.964166 -0.0136146 0)
(0.961687 -0.0133925 0)
(0.980704 -0.0332568 0)
(0.980024 -0.0328513 0)
(0.979414 -0.0324372 0)
(0.978868 -0.0320167 0)
(0.978386 -0.0315887 0)
(0.977977 -0.0311525 0)
(0.977665 -0.030708 0)
(0.977485 -0.030255 0)
(0.977489 -0.0297931 0)
(0.97775 -0.0293207 0)
(0.978359 -0.0288342 0)
(0.97942 -0.0283269 0)
(0.981031 -0.0277868 0)
(0.983262 -0.0271959 0)
(0.986108 -0.0265296 0)
(0.989452 -0.0257592 0)
(0.993033 -0.0248572 0)
(0.996452 -0.0238048 0)
(0.999216 -0.0226015 0)
(0.974208 -0.0383409 0)
(0.97374 -0.0373458 0)
(0.973231 -0.0363207 0)
(0.972694 -0.0352658 0)
(0.972137 -0.0341837 0)
(0.971557 -0.0330755 0)
(0.970946 -0.031942 0)
(0.970279 -0.0307842 0)
(0.969514 -0.0296029 0)
(0.968585 -0.0283996 0)
(0.967396 -0.0271774 0)
(0.965821 -0.0259423 0)
(0.963717 -0.0247052 0)
(0.960951 -0.0234836 0)
(0.957449 -0.0223027 0)
(0.953262 -0.0211929 0)
(0.948623 -0.0201848 0)
(0.943977 -0.0192998 0)
(0.939941 -0.0185403 0)
(0.966251 -0.0471294 0)
(0.965106 -0.0464555 0)
(0.964034 -0.0457582 0)
(0.963023 -0.0450402 0)
(0.962071 -0.0442987 0)
(0.961187 -0.0435321 0)
(0.960387 -0.0427394 0)
(0.959702 -0.0419195 0)
(0.959183 -0.0410718 0)
(0.958905 -0.0401953 0)
(0.958975 -0.0392883 0)
(0.95953 -0.038347 0)
(0.96073 -0.0373635 0)
(0.96272 -0.0363234 0)
(0.965579 -0.035204 0)
(0.969236 -0.0339753 0)
(0.97341 -0.0326048 0)
(0.977577 -0.0310681 0)
(0.981032 -0.0293616 0)
(0.958106 -0.0566854 0)
(0.957177 -0.0552472 0)
(0.956202 -0.0537582 0)
(0.955202 -0.0522204 0)
(0.954185 -0.0506379 0)
(0.953157 -0.0490132 0)
(0.952112 -0.0473483 0)
(0.951034 -0.0456451 0)
(0.949891 -0.0439058 0)
(0.948621 -0.0421324 0)
(0.947128 -0.0403278 0)
(0.94527 -0.038497 0)
(0.942865 -0.036649 0)
(0.939713 -0.0347991 0)
(0.935656 -0.0329715 0)
(0.930672 -0.0311986 0)
(0.924985 -0.0295151 0)
(0.919138 -0.0279474 0)
(0.91396 -0.0264992 0)
(0.948772 -0.0667381 0)
(0.946929 -0.0657505 0)
(0.945175 -0.0647079 0)
(0.943492 -0.0636142 0)
(0.941877 -0.0624679 0)
(0.940332 -0.0612687 0)
(0.938872 -0.0600171 0)
(0.937521 -0.0587137 0)
(0.936322 -0.0573594 0)
(0.935344 -0.0559546 0)
(0.934692 -0.0544995 0)
(0.934513 -0.0529928 0)
(0.934996 -0.0514293 0)
(0.936343 -0.0497977 0)
(0.938703 -0.0480766 0)
(0.942069 -0.0462337 0)
(0.94616 -0.0442295 0)
(0.950356 -0.0420302 0)
(0.953766 -0.0396263 0)
(0.939025 -0.0821737 0)
(0.937284 -0.0801754 0)
(0.935505 -0.0780999 0)
(0.933712 -0.0759512 0)
(0.931924 -0.073733 0)
(0.93015 -0.0714467 0)
(0.928391 -0.069093 0)
(0.926639 -0.0666727 0)
(0.924871 -0.0641868 0)
(0.923038 -0.0616368 0)
(0.921052 -0.0590248 0)
(0.918777 -0.0563549 0)
(0.916013 -0.0536349 0)
(0.912515 -0.0508802 0)
(0.908049 -0.0481174 0)
(0.902504 -0.0453869 0)
(0.896059 -0.0427389 0)
(0.889315 -0.0402198 0)
(0.883298 -0.0378494 0)
(0.92844 -0.0946963 0)
(0.925593 -0.0932826 0)
(0.922863 -0.0917471 0)
(0.92023 -0.0900983 0)
(0.917683 -0.0883412 0)
(0.915221 -0.0864834 0)
(0.912853 -0.0845335 0)
(0.910597 -0.0825003 0)
(0.908489 -0.0803923 0)
(0.906587 -0.0782177 0)
(0.904983 -0.0759842 0)
(0.903821 -0.073698 0)
(0.9033 -0.071362 0)
(0.903664 -0.0689717 0)
(0.905134 -0.0665094 0)
(0.907791 -0.0639372 0)
(0.911401 -0.0611962 0)
(0.915286 -0.0582191 0)
(0.918362 -0.0549596 0)
(0.917279 -0.11594 0)
(0.914243 -0.113249 0)
(0.911201 -0.110448 0)
(0.908187 -0.107544 0)
(0.905231 -0.104538 0)
(0.90235 -0.101424 0)
(0.899556 -0.0982006 0)
(0.89685 -0.0948638 0)
(0.89422 -0.0914116 0)
(0.891634 -0.0878433 0)
(0.889026 -0.084159 0)
(0.886274 -0.0803602 0)
(0.883185 -0.0764513 0)
(0.879484 -0.0724438 0)
(0.87485 -0.0683634 0)
(0.869034 -0.0642598 0)
(0.862067 -0.060211 0)
(0.854513 -0.0563116 0)
(0.847565 -0.0526387 0)
(0.905337 -0.132412 0)
(0.901022 -0.130321 0)
(0.896869 -0.127969 0)
(0.892874 -0.125381 0)
(0.889016 -0.122578 0)
(0.885292 -0.119589 0)
(0.881712 -0.116442 0)
(0.878288 -0.113163 0)
(0.875047 -0.109781 0)
(0.872032 -0.106319 0)
(0.869314 -0.102803 0)
(0.867011 -0.0992558 0)
(0.865305 -0.0956976 0)
(0.864451 -0.0921437 0)
(0.864743 -0.0885945 0)
(0.8664 -0.0850202 0)
(0.869348 -0.0813455 0)
(0.872965 -0.0774492 0)
(0.875998 -0.073201 0)
(0.892407 -0.159047 0)
(0.887341 -0.155352 0)
(0.882385 -0.151499 0)
(0.877539 -0.147468 0)
(0.872866 -0.143268 0)
(0.868403 -0.138884 0)
(0.864164 -0.134314 0)
(0.860166 -0.129556 0)
(0.856409 -0.124612 0)
(0.852882 -0.119488 0)
(0.849541 -0.114189 0)
(0.846302 -0.108721 0)
(0.842999 -0.103091 0)
(0.839364 -0.0973087 0)
(0.835009 -0.0913935 0)
(0.829497 -0.0853954 0)
(0.82257 -0.0794172 0)
(0.814528 -0.0736221 0)
(0.806603 -0.068201 0)
(0.878468 -0.181527 0)
(0.871843 -0.178297 0)
(0.865416 -0.174484 0)
(0.859296 -0.17023 0)
(0.853459 -0.165557 0)
(0.847901 -0.160543 0)
(0.842661 -0.155252 0)
(0.837747 -0.14974 0)
(0.833188 -0.144071 0)
(0.829013 -0.138303 0)
(0.825267 -0.132497 0)
(0.822023 -0.126714 0)
(0.819411 -0.121014 0)
(0.817641 -0.115454 0)
(0.817024 -0.110084 0)
(0.817919 -0.104921 0)
(0.820537 -0.0999103 0)
(0.824548 -0.0948942 0)
(0.828671 -0.0896012 0)
(0.863026 -0.214377 0)
(0.854627 -0.209017 0)
(0.846636 -0.203407 0)
(0.838941 -0.197365 0)
(0.831641 -0.190954 0)
(0.824842 -0.184169 0)
(0.818546 -0.177024 0)
(0.812809 -0.169565 0)
(0.807647 -0.161827 0)
(0.80307 -0.153856 0)
(0.799063 -0.145694 0)
(0.795576 -0.137379 0)
(0.79249 -0.128943 0)
(0.789574 -0.120409 0)
(0.786427 -0.111796 0)
(0.782457 -0.103138 0)
(0.776995 -0.0945356 0)
(0.769727 -0.0861931 0)
(0.761488 -0.0784762 0)
(0.846106 -0.245595 0)
(0.835483 -0.240511 0)
(0.825132 -0.234142 0)
(0.815338 -0.226934 0)
(0.806228 -0.218948 0)
(0.797741 -0.210287 0)
(0.79003 -0.201114 0)
(0.783104 -0.191518 0)
(0.777018 -0.181636 0)
(0.77179 -0.171593 0)
(0.767447 -0.161524 0)
(0.764004 -0.151569 0)
(0.761509 -0.141873 0)
(0.760062 -0.132587 0)
(0.759876 -0.123858 0)
(0.761322 -0.115818 0)
(0.764888 -0.108523 0)
(0.77082 -0.101905 0)
(0.77833 -0.095544 0)
(0.827392 -0.287747 0)
(0.81337 -0.279741 0)
(0.800053 -0.271062 0)
(0.787615 -0.261414 0)
(0.775903 -0.250752 0)
(0.765342 -0.239302 0)
(0.755868 -0.227072 0)
(0.747633 -0.21426 0)
(0.740675 -0.201003 0)
(0.735044 -0.18746 0)
(0.730734 -0.173784 0)
(0.727723 -0.160115 0)
(0.725914 -0.14657 0)
(0.725116 -0.133245 0)
(0.72496 -0.120198 0)
(0.724802 -0.107464 0)
(0.723637 -0.0951301 0)
(0.720282 -0.0833243 0)
(0.71416 -0.0725778 0)
(0.807228 -0.331571 0)
(0.78895 -0.323345 0)
(0.771857 -0.312989 0)
(0.7554 -0.30059 0)
(0.740618 -0.286881 0)
(0.727161 -0.271717 0)
(0.715438 -0.255544 0)
(0.705478 -0.238544 0)
(0.697397 -0.220976 0)
(0.691206 -0.203128 0)
(0.686946 -0.185266 0)
(0.684565 -0.167684 0)
(0.684033 -0.150685 0)
(0.685303 -0.134585 0)
(0.688396 -0.119723 0)
(0.693498 -0.106452 0)
(0.701109 -0.095025 0)
(0.711951 -0.0857856 0)
(0.726799 -0.0783616 0)
(0.784195 -0.387565 0)
(0.761214 -0.37641 0)
(0.738042 -0.362192 0)
(0.717401 -0.346449 0)
(0.698113 -0.328141 0)
(0.681218 -0.30822 0)
(0.666661 -0.286802 0)
(0.65468 -0.264241 0)
(0.64532 -0.24098 0)
(0.63871 -0.217318 0)
(0.634783 -0.193642 0)
(0.633558 -0.170283 0)
(0.634915 -0.147561 0)
(0.638682 -0.125757 0)
(0.644517 -0.10509 0)
(0.651793 -0.0856462 0)
(0.65932 -0.0676698 0)
(0.665512 -0.0509694 0)
(0.666725 -0.0361263 0)
(0.762793 -0.45051 0)
(0.729665 -0.436308 0)
(0.700955 -0.420004 0)
(0.673189 -0.398855 0)
(0.648781 -0.375212 0)
(0.627433 -0.349069 0)
(0.60952 -0.320869 0)
(0.595122 -0.291441 0)
(0.584451 -0.261028 0)
(0.57735 -0.230254 0)
(0.573969 -0.199534 0)
(0.574162 -0.169342 0)
(0.577896 -0.140179 0)
(0.585041 -0.112586 0)
(0.595475 -0.0871809 0)
(0.609129 -0.0648181 0)
(0.626474 -0.0459147 0)
(0.647444 -0.0320291 0)
(0.676247 -0.0233542 0)
(0.733602 -0.52518 0)
(0.694941 -0.510018 0)
(0.655598 -0.486613 0)
(0.62074 -0.459467 0)
(0.590003 -0.428539 0)
(0.563705 -0.393992 0)
(0.542101 -0.357769 0)
(0.525445 -0.319676 0)
(0.51327 -0.280849 0)
(0.505977 -0.241612 0)
(0.503189 -0.202494 0)
(0.505059 -0.163998 0)