/*--------------------------------*- C++ -*----------------------------------*\
  =========                 |
  \\      /  F ield         | OpenFOAM: The Open Source CFD Toolbox
   \\    /   O peration     | Website:  https://openfoam.org
    \\  /    A nd           | Version:  10
     \\/     M anipulation  |
\*---------------------------------------------------------------------------*/
FoamFile
{
    format      ascii;
    class       volVectorField;
    location    "0";
    object      U;
}
// * * * * * * * * * * * * * * * * * * * * * * * * * * * * * * * * * * * * * //

dimensions      [0 1 -1 0 0 0 0];

internalField   nonuniform List<vector> 
18483
(
(0.999995 -0.000223611 0)
(0.999995 -0.000791487 0)
(0.999995 -0.00124185 0)
(0.999995 -0.0017087 0)
(0.999995 -0.00212852 0)
(0.999995 -0.00250955 0)
(0.999995 -0.00283535 0)
(0.999995 -0.00309634 0)
(0.999998 -0.00328477 0)
(1 -0.00339622 0)
(1.00002 -0.00343259 0)
(1.00003 -0.00340791 0)
(1.00005 -0.00334908 0)
(1.00007 -0.00331228 0)
(1.00008 -0.00335355 0)
(1.00007 -0.00348255 0)
(1.00002 -0.0036433 0)
(0.999703 -0.00375062 0)
(0.998527 -0.00373572 0)
(0.995726 -0.0035868 0)
(0.991605 -0.00337179 0)
(0.988358 -0.00321544 0)
(0.988005 -0.00312546 0)
(0.990089 -0.00298618 0)
(0.992848 -0.00277674 0)
(0.99517 -0.0025398 0)
(0.996802 -0.00230928 0)
(0.997867 -0.00210272 0)
(0.99854 -0.00192515 0)
(1.00069 -0.000669494 0)
(1.0007 -0.00235679 0)
(1.00074 -0.00369881 0)
(1.00077 -0.00509909 0)
(1.00078 -0.00636177 0)
(1.00077 -0.00751867 0)
(1.00072 -0.00851832 0)
(1.00063 -0.00933375 0)
(1.00049 -0.0099446 0)
(1.00031 -0.0103504 0)
(1.00009 -0.0105699 0)
(0.999856 -0.0106447 0)
(0.999646 -0.0106009 0)
(0.99949 -0.0103599 0)
(0.999382 -0.00980743 0)
(0.999248 -0.00890776 0)
(0.999026 -0.00773987 0)
(0.998875 -0.00648126 0)
(0.99948 -0.00532159 0)
(1.00196 -0.00439648 0)
(1.00641 -0.00378683 0)
(1.01032 -0.0033473 0)
(1.01073 -0.00294528 0)
(1.00792 -0.00269522 0)
(1.0043 -0.00259639 0)
(1.00138 -0.00255124 0)
(0.99942 -0.00250329 0)
(0.998196 -0.0024331 0)
(0.997438 -0.00234181 0)
(1.002 -0.00106677 0)
(1.00204 -0.00373735 0)
(1.00216 -0.00587347 0)
(1.00225 -0.0081241 0)
(1.0023 -0.0101686 0)
(1.00228 -0.0120711 0)
(1.00216 -0.0137467 0)
(1.00191 -0.0151556 0)
(1.00155 -0.0162601 0)
(1.00109 -0.0170465 0)
(1.00058 -0.0175061 0)
(1.00007 -0.017636 0)
(0.99962 -0.0174634 0)
(0.999211 -0.0170643 0)
(0.99874 -0.0166544 0)
(0.998117 -0.0165044 0)
(0.997316 -0.0166766 0)
(0.99622 -0.0169722 0)
(0.994301 -0.0170982 0)
(0.990792 -0.0167981 0)
(0.98594 -0.0159123 0)
(0.982136 -0.0146501 0)
(0.981981 -0.0134107 0)
(0.984934 -0.0122689 0)
(0.988421 -0.0111995 0)
(0.990984 -0.0102728 0)
(0.992538 -0.00951185 0)
(0.993401 -0.00889871 0)
(0.993857 -0.00840665 0)
(1.00358 -0.00140691 0)
(1.00368 -0.0049115 0)
(1.00389 -0.00773524 0)
(1.00407 -0.0107421 0)
(1.0042 -0.0135027 0)
(1.00419 -0.016117 0)
(1.004 -0.0184647 0)
(1.00361 -0.0204865 0)
(1.00302 -0.0221071 0)
(1.00225 -0.0232772 0)
(1.00136 -0.0239722 0)
(1.00037 -0.0242058 0)
(0.999329 -0.0240848 0)
(0.998266 -0.0237569 0)
(0.997244 -0.0232566 0)
(0.996353 -0.0224001 0)
(0.995584 -0.0209684 0)
(0.994819 -0.0191137 0)
(0.994294 -0.0172247 0)
(0.995056 -0.0155903 0)
(0.997919 -0.0144197 0)
(1.00105 -0.0136573 0)
(1.00122 -0.0129897 0)
(0.998232 -0.0123498 0)
(0.99464 -0.0118129 0)
(0.992023 -0.0113191 0)
(0.990424 -0.0108262 0)
(0.989473 -0.0103378 0)
(0.988884 -0.00986585 0)
(1.00525 -0.00169841 0)
(1.00542 -0.00591397 0)
(1.00574 -0.00933751 0)
(1.00604 -0.013021 0)
(1.00627 -0.0164447 0)
(1.00631 -0.0197455 0)
(1.00611 -0.0227709 0)
(1.00559 -0.0254451 0)
(1.00474 -0.0276634 0)
(1.00356 -0.0293599 0)
(1.0021 -0.0305132 0)
(1.00043 -0.0311385 0)
(0.998662 -0.0312677 0)
(0.996946 -0.0309096 0)
(0.995391 -0.0300852 0)
(0.993969 -0.0290115 0)
(0.992513 -0.0281529 0)
(0.990763 -0.0277239 0)
(0.988254 -0.0274939 0)
(0.984266 -0.0271453 0)
(0.97875 -0.0263985 0)
(0.973794 -0.0251426 0)
(0.972468 -0.0236665 0)
(0.974807 -0.0222046 0)
(0.97793 -0.0207294 0)
(0.98007 -0.0193423 0)
(0.981221 -0.0181309 0)
(0.981775 -0.0171022 0)
(0.982013 -0.016242 0)
(1.00697 -0.00194966 0)
(1.00722 -0.00677579 0)
(1.00767 -0.0107269 0)
(1.00812 -0.0150203 0)
(1.0085 -0.0190637 0)
(1.00865 -0.0230354 0)
(1.00848 -0.0267592 0)
(1.00787 -0.0301527 0)
(1.0068 -0.0330861 0)
(1.00527 -0.0354621 0)
(1.00334 -0.0372057 0)
(1.00116 -0.0382604 0)
(0.998853 -0.0385952 0)
(0.996532 -0.0382404 0)
(0.994233 -0.0373284 0)
(0.99199 -0.0359594 0)
(0.9899 -0.0340018 0)
(0.988118 -0.0313139 0)
(0.986929 -0.028235 0)
(0.987075 -0.0254626 0)
(0.989085 -0.0234766 0)
(0.991361 -0.0223814 0)
(0.990705 -0.0217242 0)
(0.986639 -0.0210168 0)
(0.98202 -0.0203129 0)
(0.978817 -0.0196218 0)
(0.976953 -0.0188902 0)
(0.975883 -0.0181448 0)
(0.975243 -0.017414 0)
(1.00873 -0.00216301 0)
(1.00908 -0.00750612 0)
(1.00968 -0.0119158 0)
(1.01032 -0.016753 0)
(1.01089 -0.0213706 0)
(1.01122 -0.0259918 0)
(1.01114 -0.0304249 0)
(1.01055 -0.0345825 0)
(1.00936 -0.0383011 0)
(1.00758 -0.0414374 0)
(1.00525 -0.0438631 0)
(1.00248 -0.0454977 0)
(0.99937 -0.0463405 0)
(0.996021 -0.0464458 0)
(0.992557 -0.0458633 0)
(0.989128 -0.044681 0)
(0.985831 -0.0432035 0)
(0.982695 -0.041904 0)
(0.979676 -0.0409913 0)
(0.976257 -0.0401647 0)
(0.971588 -0.0389144 0)
(0.966393 -0.0369396 0)
(0.963511 -0.0345213 0)
(0.964107 -0.0322259 0)
(0.965859 -0.0300843 0)
(0.966803 -0.0280471 0)
(0.966958 -0.0262282 0)
(0.966762 -0.0246403 0)
(0.966448 -0.02327 0)
(1.01051 -0.00233828 0)
(1.01096 -0.00810489 0)
(1.01172 -0.0129017 0)
(1.01258 -0.0182111 0)
(1.0134 -0.0233468 0)
(1.01395 -0.0285796 0)
(1.01407 -0.0337097 0)
(1.01357 -0.0386515 0)
(1.01234 -0.0432194 0)
(1.01033 -0.0472467 0)
(1.00755 -0.0505839 0)
(1.00407 -0.0531278 0)
(1.00006 -0.0548215 0)
(0.995719 -0.05563 0)
(0.991258 -0.0555506 0)
(0.986823 -0.0546616 0)
(0.982625 -0.0530601 0)
(0.979034 -0.0506562 0)
(0.976461 -0.0473576 0)
(0.975274 -0.0435934 0)
(0.975713 -0.0401685 0)
(0.976894 -0.037692 0)
(0.97607 -0.0360585 0)
(0.971798 -0.0345692 0)
(0.966375 -0.0330947 0)
(0.962305 -0.0317844 0)
(0.959735 -0.0305277 0)
(0.958063 -0.0293074 0)
(0.95691 -0.0281468 0)
(1.01224 -0.00247685 0)
(1.01281 -0.00857678 0)
(1.01375 -0.0136889 0)
(1.01484 -0.0193949 0)
(1.01594 -0.0249833 0)
(1.01678 -0.0307737 0)
(1.01715 -0.0365694 0)
(1.01683 -0.0422991 0)
(1.01566 -0.0477714 0)
(1.01354 -0.0528051 0)
(1.01045 -0.0572085 0)
(1.00651 -0.0608021 0)
(1.00189 -0.0634361 0)
(0.99681 -0.0650332 0)
(0.991427 -0.0656209 0)
(0.985887 -0.0652706 0)
(0.980403 -0.0641519 0)
(0.97522 -0.0627219 0)
(0.970433 -0.0614444 0)
(0.96577 -0.0602712 0)
(0.960488 -0.0586982 0)
(0.954496 -0.0562138 0)
(0.94974 -0.0528753 0)
(0.94823 -0.0495181 0)
(0.948677 -0.0465053 0)
(0.948708 -0.0436212 0)
(0.948 -0.0409895 0)
(0.947063 -0.0386793 0)
(0.946141 -0.0366669 0)
(1.0139 -0.00258274 0)
(1.01458 -0.00893505 0)
(1.01571 -0.0142952 0)
(1.01705 -0.0203236 0)
(1.01845 -0.0262947 0)
(1.01962 -0.0325774 0)
(1.02032 -0.0389867 0)
(1.02028 -0.045474 0)
(1.01931 -0.0518467 0)
(1.01727 -0.0579048 0)
(1.01411 -0.0634108 0)
(1.00989 -0.0681353 0)
(1.00473 -0.0719014 0)
(0.998781 -0.0746163 0)
(0.992263 -0.0762715 0)
(0.985441 -0.0768887 0)
(0.978621 -0.076495 0)
(0.972226 -0.0750538 0)
(0.966768 -0.0723535 0)
(0.962665 -0.068445 0)
(0.960238 -0.0640664 0)
(0.959319 -0.0602555 0)
(0.957939 -0.0575548 0)
(0.95368 -0.055284 0)
(0.947458 -0.0529155 0)
(0.942182 -0.0507756 0)
(0.938639 -0.0488285 0)
(0.936159 -0.046963 0)
(0.934313 -0.0452164 0)
(1.01546 -0.00266157 0)
(1.01625 -0.00919846 0)
(1.01756 -0.0147476 0)
(1.01917 -0.0210303 0)
(1.02088 -0.0273141 0)
(1.02242 -0.0340162 0)
(1.0235 -0.0409685 0)
(1.02384 -0.0481493 0)
(1.02319 -0.0553734 0)
(1.02136 -0.062439 0)
(1.01822 -0.0690961 0)
(1.01376 -0.0750992 0)
(1.00806 -0.0802294 0)
(1.00132 -0.0842953 0)
(0.993843 -0.0871512 0)
(0.985954 -0.0887164 0)
(0.977956 -0.0889697 0)
(0.970139 -0.0881281 0)
(0.962691 -0.0868056 0)
(0.955549 -0.0855535 0)
(0.94829 -0.0841704 0)
(0.940477 -0.0818485 0)
(0.933117 -0.07813 0)
(0.928641 -0.0738476 0)
(0.927286 -0.0699506 0)
(0.926442 -0.0662407 0)
(0.924871 -0.062713 0)
(0.923102 -0.0595851 0)
(0.92147 -0.0568343 0)
(1.01689 -0.0027191 0)
(1.0178 -0.00938666 0)
(1.01929 -0.0150755 0)
(1.02115 -0.0215531 0)
(1.0232 -0.0280838 0)
(1.02512 -0.0351307 0)
(1.02663 -0.0425472 0)
(1.02741 -0.0503438 0)
(1.02717 -0.0583579 0)
(1.02564 -0.0664069 0)
(1.02265 -0.0742419 0)
(1.01814 -0.0815879 0)
(1.01218 -0.0881497 0)
(1.00498 -0.0936395 0)
(0.996758 -0.0978437 0)
(0.987781 -0.100673 0)
(0.978342 -0.102128 0)
(0.968846 -0.102243 0)
(0.959913 -0.100906 0)
(0.952207 -0.0978634 0)
(0.946173 -0.0933752 0)
(0.942054 -0.0886206 0)
(0.938911 -0.0848844 0)
(0.934074 -0.0819645 0)
(0.926688 -0.0788234 0)
(0.919478 -0.0757109 0)
(0.91437 -0.072931 0)
(0.910749 -0.0702542 0)
(0.907959 -0.0677263 0)
(1.01821 -0.0027603 0)
(1.01922 -0.00951684 0)
(1.02088 -0.0153057 0)
(1.023 -0.0219279 0)
(1.02537 -0.0286463 0)
(1.02769 -0.0359678 0)
(1.02966 -0.0437699 0)
(1.03092 -0.0521 0)
(1.03116 -0.0608272 0)
(1.03007 -0.0697945 0)
(1.02743 -0.0787528 0)
(1.02315 -0.0874024 0)
(1.01721 -0.0954128 0)
(1.00971 -0.102468 0)
(1.00079 -0.108309 0)
(0.990739 -0.112747 0)
(0.97997 -0.115621 0)
(0.969013 -0.116825 0)
(0.95833 -0.116602 0)
(0.948 -0.115733 0)
(0.937724 -0.114755 0)
(0.927083 -0.113072 0)
(0.916375 -0.109591 0)
(0.907854 -0.104569 0)
(0.903487 -0.0995744 0)
(0.901286 -0.094964 0)
(0.898597 -0.0903888 0)
(0.895606 -0.0862195 0)
(0.892932 -0.0825394 0)
(1.01941 -0.00278911 0)
(1.02051 -0.00960273 0)
(1.02235 -0.0154602 0)
(1.02471 -0.0221856 0)
(1.0274 -0.0290409 0)
(1.03011 -0.0365737 0)
(1.03254 -0.0446864 0)
(1.03433 -0.0534633 0)
(1.03513 -0.0628079 0)
(1.0346 -0.0725938 0)
(1.03247 -0.0825869 0)
(1.02855 -0.0924968 0)
(1.02275 -0.101997 0)
(1.01508 -0.110743 0)
(1.00566 -0.118386 0)
(0.994791 -0.124603 0)
(0.982885 -0.129159 0)
(0.970409 -0.131952 0)
(0.957891 -0.132941 0)
(0.946007 -0.131868 0)
(0.935524 -0.128473 0)
(0.927044 -0.123436 0)
(0.920549 -0.118572 0)
(0.914027 -0.114911 0)
(0.905043 -0.11125 0)
(0.895019 -0.107069 0)
(0.887282 -0.103182 0)
(0.881904 -0.0994669 0)
(0.877732 -0.0958427 0)
(1.0205 -0.00280853 0)
(1.02169 -0.00965487 0)
(1.02369 -0.0155562 0)
(1.02627 -0.0223515 0)
(1.02927 -0.0293009 0)
(1.03237 -0.0369899 0)
(1.03526 -0.0453437 0)
(1.03759 -0.0544816 0)
(1.03898 -0.0643452 0)
(1.03907 -0.0748479 0)
(1.03752 -0.085791 0)
(1.03407 -0.0969097 0)
(1.02857 -0.107878 0)
(1.02099 -0.118318 0)
(1.01142 -0.127816 0)
(1.00002 -0.135998 0)
(0.987141 -0.142577 0)
(0.973265 -0.147311 0)
(0.95902 -0.150013 0)
(0.944849 -0.150965 0)
(0.930712 -0.151079 0)
(0.916284 -0.150632 0)
(0.901411 -0.14837 0)
(0.887659 -0.143267 0)
(0.878347 -0.136904 0)
(0.873503 -0.130995 0)
(0.86923 -0.125078 0)
(0.864364 -0.11934 0)
(0.860022 -0.114245 0)
(1.02149 -0.00282082 0)
(1.02276 -0.00968133 0)
(1.0249 -0.0156074 0)
(1.0277 -0.0224462 0)
(1.03098 -0.0294548 0)
(1.03445 -0.0372534 0)
(1.03779 -0.045787 0)
(1.04066 -0.0552085 0)
(1.04266 -0.0655012 0)
(1.04339 -0.0766241 0)
(1.04249 -0.0884194 0)
(1.03965 -0.100648 0)
(1.03469 -0.112987 0)
(1.0275 -0.125055 0)
(1.01804 -0.136441 0)
(1.00639 -0.146735 0)
(0.992812 -0.155554 0)
(0.977812 -0.162521 0)
(0.961972 -0.167333 0)
(0.945895 -0.169738 0)
(0.930384 -0.169265 0)
(0.916365 -0.16567 0)
(0.90458 -0.16036 0)
(0.894516 -0.155831 0)
(0.883174 -0.151976 0)
(0.869433 -0.146969 0)
(0.857244 -0.141567 0)
(0.848761 -0.136446 0)
(0.842318 -0.131227 0)
(1.02239 -0.00282766 0)
(1.02373 -0.00968822 0)
(1.02601 -0.0156243 0)
(1.029 -0.022486 0)
(1.03255 -0.0295258 0)
(1.03636 -0.0373961 0)
(1.04013 -0.046058 0)
(1.04351 -0.0556957 0)
(1.04612 -0.0663349 0)
(1.04753 -0.0779787 0)
(1.04735 -0.0905087 0)
(1.04527 -0.103717 0)
(1.04101 -0.117308 0)
(1.03437 -0.130929 0)
(1.02524 -0.144182 0)
(1.01362 -0.156621 0)
(0.99969 -0.167791 0)
(0.983859 -0.177255 0)
(0.96666 -0.184617 0)
(0.948652 -0.189663 0)
(0.930108 -0.192829 0)
(0.910863 -0.194937 0)
(0.890723 -0.195435 0)
(0.870454 -0.192117 0)
(0.853592 -0.185015 0)
(0.843257 -0.177316 0)
(0.836163 -0.169812 0)
(0.82837 -0.161874 0)
(0.821054 -0.154513 0)
(1.0232 -0.00283031 0)
(1.02461 -0.0096802 0)
(1.02701 -0.0156151 0)
(1.03018 -0.0224838 0)
(1.03398 -0.0295333 0)
(1.03811 -0.0374452 0)
(1.04228 -0.0461926 0)
(1.04616 -0.0559883 0)
(1.04937 -0.0668975 0)
(1.05147 -0.0789644 0)
(1.05207 -0.0921126 0)
(1.05078 -0.106178 0)
(1.04728 -0.120903 0)
(1.04133 -0.135968 0)
(1.03274 -0.150987 0)
(1.02145 -0.16551 0)
(1.00753 -0.179067 0)
(0.991263 -0.191198 0)
(0.973159 -0.201452 0)
(0.953735 -0.209363 0)
(0.933496 -0.214252 0)
(0.913354 -0.215062 0)
(0.894555 -0.211698 0)
(0.878212 -0.206893 0)
(0.862728 -0.203294 0)
(0.844339 -0.19873 0)
(0.825111 -0.191892 0)
(0.810611 -0.184877 0)
(0.800076 -0.177581 0)
(1.02394 -0.00282971 0)
(1.02541 -0.00966093 0)
(1.02792 -0.0155865 0)
(1.03125 -0.0224498 0)
(1.03528 -0.0294931 0)
(1.0397 -0.0374231 0)
(1.04425 -0.0462205 0)
(1.04861 -0.0561247 0)
(1.0524 -0.0672367 0)
(1.05518 -0.0796403 0)
(1.05653 -0.0933042 0)
(1.05605 -0.108111 0)
(1.05338 -0.123841 0)
(1.04823 -0.1402 0)
(1.0404 -0.156829 0)
(1.02972 -0.17331 0)
(1.01616 -0.18919 0)
(0.999904 -0.204011 0)
(0.981409 -0.21732 0)
(0.961004 -0.228606 0)
(0.938723 -0.237498 0)
(0.914482 -0.244478 0)
(0.888315 -0.250083 0)
(0.860615 -0.252189 0)
(0.833614 -0.247526 0)
(0.812966 -0.238461 0)
(0.799785 -0.229306 0)
(0.787474 -0.219202 0)
(0.77481 -0.208631 0)
(1.02462 -0.00282663 0)
(1.02614 -0.0096334 0)
(1.02876 -0.0155437 0)
(1.03223 -0.0223925 0)
(1.03646 -0.0294179 0)
(1.04115 -0.0373482 0)
(1.04606 -0.0461674 0)
(1.05086 -0.0561397 0)
(1.05519 -0.0673988 0)
(1.05862 -0.0800664 0)
(1.06071 -0.0941547 0)
(1.06104 -0.109589 0)
(1.05925 -0.126183 0)
(1.05501 -0.143671 0)
(1.04808 -0.161736 0)
(1.03822 -0.180004 0)
(1.02531 -0.198063 0)
(1.00947 -0.215504 0)
(0.991076 -0.23195 0)
(0.97028 -0.246911 0)
(0.946969 -0.25954 0)
(0.921548 -0.268357 0)
(0.895406 -0.271515 0)
(0.870379 -0.269548 0)
(0.847662 -0.26719 0)
(0.823531 -0.265522 0)
(0.794961 -0.259613 0)
(0.769265 -0.250681 0)
(0.750877 -0.24125 0)
(1.02523 -0.0028217 0)
(1.0268 -0.00960004 0)
(1.02951 -0.0154913 0)
(1.03311 -0.0223189 0)
(1.03754 -0.0293181 0)
(1.04247 -0.0372354 0)
(1.04769 -0.0460547 0)
(1.05291 -0.0560637 0)
(1.05774 -0.0674243 0)
(1.06179 -0.0802929 0)
(1.0646 -0.0947211 0)
(1.06576 -0.110673 0)
(1.06487 -0.127996 0)
(1.06159 -0.146459 0)
(1.05562 -0.165783 0)
(1.04669 -0.185637 0)
(1.03466 -0.205669 0)
(1.01962 -0.225556 0)
(1.00184 -0.245015 0)
(0.981343 -0.263604 0)
(0.957612 -0.280547 0)
(0.930131 -0.295337 0)
(0.898807 -0.308833 0)
(0.863936 -0.32081 0)
(0.826134 -0.325683 0)
(0.790026 -0.319609 0)
(0.763664 -0.309333 0)
(0.74387 -0.298484 0)
(0.722755 -0.284691 0)
(1.02577 -0.00281547 0)
(1.02739 -0.00956292 0)
(1.03018 -0.0154326 0)
(1.0339 -0.0222347 0)
(1.0385 -0.0292022 0)
(1.04365 -0.0370971 0)
(1.04917 -0.0459001 0)
(1.05476 -0.0559215 0)
(1.06007 -0.0673463 0)
(1.0647 -0.0803617 0)
(1.06821 -0.0950548 0)
(1.07017 -0.111427 0)
(1.07017 -0.129362 0)
(1.06784 -0.148659 0)
(1.06285 -0.169067 0)
(1.05495 -0.190293 0)
(1.04398 -0.21205 0)
(1.03003 -0.234128 0)
(1.01333 -0.25636 0)
(0.993698 -0.278464 0)
(0.970381 -0.299842 0)
(0.9428 -0.319254 0)
(0.911665 -0.334288 0)
(0.878623 -0.341921 0)
(0.845668 -0.343896 0)
(0.813241 -0.347681 0)
(0.775025 -0.349453 0)
(0.732032 -0.34163 0)
(0.697695 -0.330439 0)
(1.02627 -0.00280837 0)
(1.02792 -0.0095237 0)
(1.03079 -0.0153707 0)
(1.0346 -0.0221444 0)
(1.03936 -0.0290769 0)
(1.0447 -0.0369429 0)
(1.05049 -0.0457179 0)
(1.05643 -0.0557331 0)
(1.06218 -0.0671917 0)
(1.06736 -0.0803086 0)
(1.07153 -0.0952042 0)
(1.07425 -0.111916 0)
(1.0751 -0.13036 0)
(1.07368 -0.150358 0)
(1.0697 -0.171683 0)
(1.06287 -0.194069 0)
(1.05306 -0.217292 0)
(1.04042 -0.24126 0)
(1.02513 -0.265944 0)
(1.00689 -0.291203 0)
(0.984828 -0.316635 0)
(0.957862 -0.341414 0)
(0.925024 -0.365311 0)
(0.886026 -0.390085 0)
(0.840446 -0.413765 0)
(0.787983 -0.423844 0)
(0.738173 -0.416898 0)
(0.701963 -0.40693 0)
(0.669371 -0.39319 0)
(1.0267 -0.00280077 0)
(1.02839 -0.00948375 0)
(1.03133 -0.0153076 0)
(1.03523 -0.0220516 0)
(1.04013 -0.0289478 0)
(1.04564 -0.0367807 0)
(1.05167 -0.0455195 0)
(1.05792 -0.0555146 0)
(1.06408 -0.0669835 0)
(1.06977 -0.0801663 0)
(1.07455 -0.0952138 0)
(1.07798 -0.112196 0)
(1.07963 -0.131058 0)
(1.07912 -0.151638 0)
(1.07613 -0.173726 0)
(1.07038 -0.197081 0)
(1.06177 -0.221525 0)
(1.05052 -0.247068 0)
(1.03689 -0.273827 0)
(1.02044 -0.301805 0)
(1.00019 -0.330914 0)
(0.975024 -0.360856 0)
(0.944067 -0.390231 0)
(0.907736 -0.415203 0)
(0.866899 -0.430848 0)
(0.823344 -0.442027 0)
(0.775618 -0.45952 0)
(0.713873 -0.466737 0)
(0.648857 -0.455557 0)
(1.02709 -0.00279296 0)
(1.02881 -0.00944415 0)
(1.03181 -0.0152451 0)
(1.03579 -0.0219591 0)
(1.04081 -0.0288188 0)
(1.04648 -0.0366164 0)
(1.05273 -0.0453139 0)
(1.05926 -0.0552792 0)
(1.06578 -0.0667405 0)
(1.07193 -0.0799613 0)
(1.07727 -0.0951195 0)
(1.08137 -0.112313 0)
(1.08379 -0.131512 0)
(1.08414 -0.152571 0)
(1.08209 -0.17529 0)
(1.07739 -0.199444 0)
(1.06997 -0.224889 0)
(1.06015 -0.251701 0)
(1.04827 -0.280133 0)
(1.03391 -0.310362 0)
(1.01596 -0.342487 0)
(0.993498 -0.376628 0)
(0.9651 -0.412457 0)
(0.928033 -0.450332 0)
(0.881302 -0.494495 0)
(0.822972 -0.540825 0)
(0.747589 -0.561711 0)
(0.672458 -0.555257 0)
(0.616534 -0.546628 0)
(1.02744 -0.00278516 0)
(1.02919 -0.00940574 0)
(1.03223 -0.0151845 0)
(1.03628 -0.0218691 0)
(1.04142 -0.0286931 0)
(1.04722 -0.0364545 0)
(1.05366 -0.0451082 0)
(1.06044 -0.0550376 0)
(1.0673 -0.0664785 0)
(1.07386 -0.0797158 0)
(1.07972 -0.0949509 0)
(1.08444 -0.112306 0)
(1.08757 -0.131775 0)
(1.08873 -0.153228 0)
(1.08757 -0.176465 0)
(1.08386 -0.201273 0)
(1.07759 -0.227525 0)
(1.06915 -0.255336 0)
(1.05903 -0.285052 0)
(1.04691 -0.317041 0)
(1.03161 -0.351578 0)
(1.01217 -0.389175 0)
(0.987825 -0.430694 0)
(0.956532 -0.475018 0)
(0.916414 -0.515565 0)
(0.867034 -0.544381 0)
(0.810489 -0.577248 0)
(0.735595 -0.627965 0)
(0.625215 -0.640239 0)
(1.02774 -0.00277756 0)
(1.02952 -0.00936912 0)
(1.03261 -0.0151268 0)
(1.03672 -0.021783 0)
(1.04195 -0.0285729 0)
(1.04787 -0.0362985 0)
(1.05449 -0.0449077 0)
(1.06149 -0.0547974 0)
(1.06864 -0.0662091 0)
(1.07558 -0.0794465 0)
(1.08192 -0.0947315 0)
(1.0872 -0.112209 0)
(1.09099 -0.131893 0)
(1.09288 -0.153665 0)
(1.09254 -0.177328 0)
(1.08975 -0.202663 0)
(1.08457 -0.229555 0)
(1.07748 -0.258139 0)
(1.06902 -0.288799 0)
(1.05909 -0.32206 0)
(1.04667 -0.358451 0)
(1.03065 -0.39855 0)
(1.01093 -0.443692 0)
(0.985674 -0.495132 0)
(0.94704 -0.553684 0)
(0.893894 -0.630437 0)
(0.82679 -0.726889 0)
(0.710963 -0.779488 0)
(0.562044 -0.771829 0)
(1.02801 -0.00277027 0)
(1.02981 -0.00933475 0)
(1.03294 -0.0150725 0)
(1.03711 -0.021702 0)
(1.04242 -0.0284598 0)
(1.04845 -0.0361506 0)
(1.05522 -0.0447162 0)
(1.06242 -0.0545647 0)
(1.06983 -0.0659416 0)
(1.07711 -0.0791674 0)
(1.08387 -0.0944818 0)
(1.08966 -0.11205 0)
(1.09405 -0.131904 0)
(1.09662 -0.153936 0)
(1.09703 -0.177945 0)
(1.09509 -0.203705 0)
(1.09091 -0.231098 0)
(1.08506 -0.26027 0)
(1.07816 -0.291608 0)
(1.07024 -0.325702 0)
(1.06071 -0.363364 0)
(1.04843 -0.405307 0)
(1.033 -0.452845 0)
(1.01473 -0.509693 0)
(0.990076 -0.577104 0)
(0.952249 -0.641032 0)
(0.895925 -0.688451 0)
(0.826041 -0.781196 0)
(0.680735 -0.921575 0)
(1.02825 -0.00276339 0)
(1.03007 -0.00930289 0)
(1.03323 -0.0150222 0)
(1.03745 -0.0216268 0)
(1.04283 -0.0283547 0)
(1.04896 -0.0360126 0)
(1.05586 -0.0445362 0)
(1.06323 -0.0543434 0)
(1.07088 -0.0656826 0)
(1.07846 -0.0788886 0)
(1.0856 -0.0942168 0)
(1.09185 -0.111851 0)
(1.09678 -0.131838 0)
(1.09996 -0.154078 0)
(1.10106 -0.178369 0)
(1.09988 -0.204471 0)
(1.0966 -0.232251 0)
(1.09188 -0.261855 0)
(1.08642 -0.293666 0)
(1.08033 -0.328257 0)
(1.0734 -0.366625 0)
(1.06496 -0.40982 0)
(1.05409 -0.458792 0)
(1.04261 -0.517204 0)
(1.02988 -0.589745 0)
(0.998208 -0.672894 0)
(0.946609 -0.795763 0)
(0.890515 -1.0189 0)
(0.649695 -1.12077 0)
(0.998962 -0.00177345 0)
(0.999239 -0.00163189 0)
(0.999409 -0.00148813 0)
(0.999475 -0.00134192 0)
(0.999429 -0.00119275 0)
(0.999252 -0.00103973 0)
(0.998919 -0.000881979 0)
(0.998395 -0.000718922 0)
(0.997642 -0.000550504 0)
(0.996628 -0.000377506 0)
(0.995329 -0.000201813 0)
(0.993744 -2.65861e-05 0)
(0.991902 0.000143793 0)
(0.98987 0.000304036 0)
(0.987754 0.000448574 0)
(0.985697 0.000572416 0)
(0.983866 0.00067211 0)
(0.982428 0.000746588 0)
(0.981533 0.00079768 0)
(0.996959 -0.0022396 0)
(0.996628 -0.00213111 0)
(0.996391 -0.00201543 0)
(0.996237 -0.00189507 0)
(0.99617 -0.00177118 0)
(0.996206 -0.00164554 0)
(0.996373 -0.00152045 0)
(0.996717 -0.00139841 0)
(0.997292 -0.00128189 0)
(0.998155 -0.00117295 0)
(0.99936 -0.00107272 0)
(1.00094 -0.000980872 0)
(1.00289 -0.000895181 0)
(1.00517 -0.000811424 0)
(1.00766 -0.000723659 0)
(1.01021 -0.000625012 0)
(1.01259 -0.000508857 0)
(1.01459 -0.00037018 0)
(1.01597 -0.000206764 0)
(0.994086 -0.00800391 0)
(0.994195 -0.0076382 0)
(0.994221 -0.00727408 0)
(0.994178 -0.00690973 0)
(0.994069 -0.00654458 0)
(0.99389 -0.00617755 0)
(0.993624 -0.00580755 0)
(0.993247 -0.00543354 0)
(0.992724 -0.00505446 0)
(0.992013 -0.00466935 0)
(0.991071 -0.00427754 0)
(0.989865 -0.00387902 0)
(0.988379 -0.00347484 0)
(0.986633 -0.00306734 0)
(0.984689 -0.00266027 0)
(0.982661 -0.00225845 0)
(0.980711 -0.00186713 0)
(0.979028 -0.00149098 0)
(0.977801 -0.00113314 0)
(0.988491 -0.00942347 0)
(0.988192 -0.00899405 0)
(0.987946 -0.00855686 0)
(0.987748 -0.00811476 0)
(0.987604 -0.00766804 0)
(0.987532 -0.00721736 0)
(0.987563 -0.00676383 0)
(0.987735 -0.00630887 0)
(0.988098 -0.00585423 0)
(0.988708 -0.00540182 0)
(0.98962 -0.00495341 0)
(0.990875 -0.00451016 0)
(0.992493 -0.00407205 0)
(0.99445 -0.00363737 0)
(0.996671 -0.00320248 0)
(0.99902 -0.00276188 0)
(1.00131 -0.00230895 0)
(1.00331 -0.00183702 0)
(1.00481 -0.00134068 0)
(0.982089 -0.015518 0)
(0.98208 -0.0148527 0)
(0.982011 -0.0141901 0)
(0.981893 -0.0135301 0)
(0.981732 -0.0128733 0)
(0.981526 -0.0122184 0)
(0.981268 -0.0115628 0)
(0.980939 -0.010903 0)
(0.980513 -0.0102341 0)
(0.979953 -0.00955031 0)
(0.979216 -0.00884482 0)
(0.978254 -0.00811113 0)
(0.97703 -0.00734376 0)
(0.975532 -0.0065395 0)
(0.973784 -0.00569841 0)
(0.971861 -0.00482432 0)
(0.969897 -0.00392463 0)
(0.968067 -0.00300911 0)
(0.966571 -0.00208828 0)
(0.97483 -0.0167209 0)
(0.974525 -0.0160404 0)
(0.974274 -0.0153391 0)
(0.974062 -0.0146211 0)
(0.973879 -0.0138865 0)
(0.973724 -0.0131353 0)
(0.973604 -0.0123678 0)
(0.973534 -0.0115839 0)
(0.973538 -0.0107842 0)
(0.97365 -0.00996921 0)
(0.973912 -0.00913983 0)
(0.974372 -0.00829692 0)
(0.975071 -0.00744075 0)
(0.976033 -0.00657034 0)
(0.977247 -0.0056829 0)
(0.978656 -0.00477376 0)
(0.980145 -0.00383709 0)
(0.981549 -0.00286758 0)
(0.982676 -0.00186273 0)
(0.966112 -0.0220835 0)
(0.965767 -0.0209666 0)
(0.965399 -0.01983 0)
(0.965011 -0.0186757 0)
(0.9646 -0.017507 0)
(0.96416 -0.0163262 0)
(0.96368 -0.0151352 0)
(0.963146 -0.0139359 0)
(0.962534 -0.0127298 0)
(0.961814 -0.0115181 0)
(0.960949 -0.0103017 0)
(0.959893 -0.00908191 0)
(0.958604 -0.00786065 0)
(0.957049 -0.00664185 0)
(0.955229 -0.00543196 0)
(0.953193 -0.00424021 0)
(0.951054 -0.00307757 0)
(0.948995 -0.00195416 0)
(0.947243 -0.000875522 0)
(0.956067 -0.0270617 0)
(0.955378 -0.0260044 0)
(0.954766 -0.0249202 0)
(0.954217 -0.0238151 0)
(0.953721 -0.02269 0)
(0.953277 -0.0215467 0)
(0.952887 -0.0203874 0)
(0.952559 -0.0192143 0)
(0.95231 -0.0180298 0)
(0.952165 -0.016836 0)
(0.952161 -0.0156343 0)
(0.952343 -0.0144251 0)
(0.952764 -0.0132063 0)
(0.95347 -0.0119718 0)
(0.954487 -0.0107108 0)
(0.955792 -0.00940667 0)
(0.957293 -0.00803884 0)
(0.958815 -0.00658643 0)
(0.960116 -0.00503522 0)
(0.945308 -0.0349126 0)
(0.94453 -0.0332516 0)
(0.943766 -0.0315524 0)
(0.943022 -0.0298176 0)
(0.9423 -0.0280509 0)
(0.941597 -0.0262548 0)
(0.940906 -0.0244317 0)
(0.940215 -0.0225842 0)
(0.939503 -0.0207152 0)
(0.93874 -0.0188273 0)
(0.93788 -0.0169237 0)
(0.936863 -0.0150084 0)
(0.935614 -0.0130877 0)
(0.934056 -0.0111717 0)
(0.932125 -0.00927648 0)
(0.929807 -0.00742553 0)
(0.927172 -0.00564891 0)
(0.924411 -0.00397873 0)
(0.921843 -0.00243996 0)
(0.932879 -0.0436002 0)
(0.931654 -0.0420333 0)
(0.930527 -0.0404302 0)
(0.929486 -0.0387989 0)
(0.928529 -0.0371412 0)
(0.927653 -0.0354599 0)
(0.926862 -0.0337582 0)
(0.926164 -0.0320398 0)
(0.925572 -0.0303084 0)
(0.925107 -0.0285677 0)
(0.924804 -0.0268212 0)
(0.924715 -0.0250715 0)
(0.924913 -0.0233185 0)
(0.925484 -0.0215578 0)
(0.926515 -0.0197763 0)
(0.928054 -0.0179494 0)
(0.930064 -0.0160393 0)
(0.93237 -0.013998 0)
(0.934626 -0.0117797 0)
(0.920033 -0.0544136 0)
(0.918714 -0.052109 0)
(0.917437 -0.0497418 0)
(0.916217 -0.0473164 0)
(0.915058 -0.0448359 0)
(0.913965 -0.0423019 0)
(0.912935 -0.0397156 0)
(0.911963 -0.0370788 0)
(0.911032 -0.0343934 0)
(0.91012 -0.0316617 0)
(0.909183 -0.0288861 0)
(0.908157 -0.02607 0)
(0.906947 -0.0232185 0)
(0.905428 -0.0203413 0)
(0.903453 -0.0174561 0)
(0.900891 -0.0145946 0)
(0.897689 -0.0118064 0)
(0.893965 -0.00915812 0)
(0.890097 -0.00672093 0)
(0.905745 -0.0653904 0)
(0.903822 -0.0631169 0)
(0.902028 -0.0607789 0)
(0.900355 -0.0583901 0)
(0.898798 -0.0559578 0)
(0.897359 -0.0534905 0)
(0.896042 -0.0509972 0)
(0.894852 -0.0484874 0)
(0.893801 -0.0459705 0)
(0.892905 -0.0434554 0)
(0.892192 -0.0409506 0)
(0.891711 -0.0384636 0)
(0.891538 -0.0360002 0)
(0.891793 -0.0335624 0)
(0.892631 -0.0311435 0)
(0.894221 -0.0287209 0)
(0.896671 -0.0262461 0)
(0.899919 -0.0236383 0)
(0.903591 -0.0207915 0)
(0.890617 -0.0792614 0)
(0.888513 -0.076125 0)
(0.886502 -0.0728953 0)
(0.884605 -0.0695816 0)
(0.882837 -0.0661881 0)
(0.881205 -0.0627158 0)
(0.879712 -0.059165 0)
(0.878357 -0.0555359 0)
(0.877128 -0.0518285 0)
(0.876007 -0.0480427 0)
(0.874957 -0.0441784 0)
(0.873921 -0.0402355 0)
(0.872804 -0.0362148 0)
(0.871464 -0.0321191 0)
(0.869691 -0.0279576 0)
(0.86722 -0.0237545 0)
(0.863784 -0.019563 0)
(0.859252 -0.0154781 0)
(0.853855 -0.0116372 0)
(0.874403 -0.0924653 0)
(0.871523 -0.0891392 0)
(0.868846 -0.0856762 0)
(0.866362 -0.0821033 0)
(0.864067 -0.0784385 0)
(0.861961 -0.074702 0)
(0.860045 -0.0709155 0)
(0.85832 -0.0671014 0)
(0.85679 -0.0632825 0)
(0.855462 -0.0594813 0)
(0.854348 -0.05572 0)
(0.853477 -0.0520196 0)
(0.852909 -0.0484002 0)
(0.85275 -0.0448795 0)
(0.853184 -0.04147 0)
(0.854478 -0.0381716 0)
(0.856953 -0.0349547 0)
(0.860834 -0.0317354 0)
(0.865984 -0.028354 0)
(0.856332 -0.109642 0)
(0.853 -0.105192 0)
(0.849856 -0.100587 0)
(0.846934 -0.0958419 0)
(0.844257 -0.0909698 0)
(0.841843 -0.0859771 0)
(0.8397 -0.0808705 0)
(0.837831 -0.0756565 0)
(0.836229 -0.0703405 0)
(0.834879 -0.0649271 0)
(0.833751 -0.0594198 0)
(0.832799 -0.053821 0)
(0.831945 -0.0481326 0)
(0.831065 -0.0423566 0)
(0.82995 -0.036498 0)
(0.828274 -0.0305705 0)
(0.825574 -0.024616 0)
(0.821339 -0.0187347 0)
(0.815297 -0.0131152 0)
(0.837123 -0.126208 0)
(0.832674 -0.121182 0)
(0.828578 -0.115841 0)
(0.824829 -0.110249 0)
(0.821435 -0.104445 0)
(0.8184 -0.0984729 0)
(0.815731 -0.0923805 0)
(0.813427 -0.0862184 0)
(0.811488 -0.0800406 0)
(0.80991 -0.0739036 0)
(0.808693 -0.0678669 0)
(0.807844 -0.0619918 0)
(0.807388 -0.0563404 0)
(0.807396 -0.0509739 0)
(0.808014 -0.0459476 0)
(0.809515 -0.0413092 0)
(0.812348 -0.0370754 0)
(0.817067 -0.0331997 0)
(0.824071 -0.0295243 0)
(0.814976 -0.147795 0)
(0.809502 -0.14113 0)
(0.804388 -0.134141 0)
(0.799714 -0.126849 0)
(0.795522 -0.119289 0)
(0.791859 -0.111498 0)
(0.78875 -0.103516 0)
(0.786214 -0.0953864 0)
(0.784259 -0.087153 0)
(0.782881 -0.0788573 0)
(0.782058 -0.0705351 0)
(0.781754 -0.0622145 0)
(0.7819 -0.0539145 0)
(0.782386 -0.0456433 0)
(0.783024 -0.0374068 0)
(0.783493 -0.0292001 0)
(0.783222 -0.0210468 0)
(0.781395 -0.0130396 0)
(0.776975 -0.00536329 0)
(0.791425 -0.170044 0)
(0.784029 -0.162314 0)
(0.777286 -0.153876 0)
(0.771187 -0.144861 0)
(0.765808 -0.13536 0)
(0.761179 -0.125462 0)
(0.757345 -0.115272 0)
(0.754325 -0.104895 0)
(0.752133 -0.0944471 0)
(0.750763 -0.0840493 0)
(0.750196 -0.0738333 0)
(0.750406 -0.0639399 0)
(0.751371 -0.054519 0)
(0.753089 -0.0457338 0)
(0.755625 -0.0377393 0)
(0.759152 -0.0307119 0)
(0.764152 -0.0247761 0)
(0.77131 -0.0199646 0)
(0.781656 -0.0162642 0)
(0.764234 -0.198838 0)
(0.754793 -0.188756 0)
(0.745959 -0.177863 0)
(0.738007 -0.166247 0)
(0.73101 -0.153952 0)
(0.725094 -0.141102 0)
(0.720328 -0.127812 0)
(0.716782 -0.114223 0)
(0.714484 -0.100482 0)
(0.713455 -0.0867377 0)
(0.713683 -0.0731344 0)
(0.715137 -0.059801 0)
(0.717748 -0.046844 0)
(0.721405 -0.0343247 0)
(0.72591 -0.0222979 0)
(0.730988 -0.0107127 0)
(0.735904 0.000449893 0)
(0.73976 0.0110929 0)
(0.740866 0.0211882 0)
(0.735969 -0.230461 0)
(0.722879 -0.21871 0)
(0.711051 -0.205523 0)
(0.700376 -0.190975 0)
(0.691107 -0.175341 0)
(0.683357 -0.158785 0)
(0.677269 -0.14153 0)
(0.672908 -0.123801 0)
(0.670348 -0.105836 0)
(0.669601 -0.0878805 0)
(0.670654 -0.0701959 0)
(0.673457 -0.053056 0)
(0.677928 -0.0367487 0)
(0.683963 -0.0216197 0)
(0.691515 -0.00796919 0)
(0.700445 0.00371254 0)
(0.711358 0.0130438 0)
(0.724716 0.019832 0)
(0.741887 0.0235023 0)
(0.703585 -0.270735 0)
(0.686859 -0.256065 0)
(0.671013 -0.239268 0)
(0.656836 -0.220843 0)
(0.644514 -0.200817 0)
(0.634327 -0.179485 0)
(0.626407 -0.157141 0)
(0.620937 -0.134095 0)
(0.617964 -0.110671 0)
(0.617551 -0.0872086 0)
(0.6197 -0.0640415 0)
(0.624382 -0.0415038 0)
(0.631525 -0.0199337 0)
(0.641026 0.0004394 0)
(0.652571 0.0192738 0)
(0.666193 0.0366748 0)
(0.680509 0.0526279 0)
(0.694868 0.0669871 0)
(0.707398 0.0804904 0)
(0.671824 -0.31677 0)
(0.648288 -0.299395 0)
(0.627032 -0.279255 0)
(0.60801 -0.256215 0)
(0.591659 -0.230849 0)
(0.57821 -0.203646 0)
(0.567986 -0.175009 0)
(0.56101 -0.145399 0)
(0.557447 -0.115253 0)
(0.557313 -0.084987 0)
(0.560637 -0.0550363 0)
(0.567402 -0.0258523 0)
(0.577558 0.00211973 0)
(0.590939 0.0282148 0)
(0.607665 0.0520735 0)
(0.626673 0.07247 0)
(0.649486 0.0886963 0)
(0.675352 0.100068 0)
(0.705601 0.103854 0)